  67  67   0   0
  0.3503968E+02  0.1114491E-08  0.1114491E-08  0.2182484E-08  0.0000000E+00
  1.000000000000000E-004
  CAR 
 Si-Diamond                              
      9.10879044    -24.18079902  301      0.81841602      1.00000000
    -24.181  0.0000E+00  0.0000E+00
    -24.070  0.0000E+00  0.0000E+00
    -23.959  0.0000E+00  0.0000E+00
    -23.848 -0.2812E-31 -0.3120E-32
    -23.737 -0.2007E-27 -0.2227E-28
    -23.626 -0.7700E-24 -0.8547E-25
    -23.515 -0.1587E-20 -0.1762E-21
    -23.404 -0.1754E-17 -0.1948E-18
    -23.293 -0.1005E-14 -0.1118E-15
    -23.182 -0.3158E-12 -0.3515E-13
    -23.071 -0.5270E-10 -0.5883E-11
    -22.960 -0.4643E-08 -0.5211E-09
    -22.849 -0.2137E-06 -0.2423E-07
    -22.738 -0.5032E-05 -0.5826E-06
    -22.627 -0.5802E-04 -0.7021E-05
    -22.516 -0.2885E-03 -0.3903E-04
    -22.405 -0.2546E-03 -0.6728E-04
    -22.294  0.2313E-02  0.1894E-03
    -22.183  0.7099E-02  0.9771E-03
    -22.072  0.7270E-02  0.1784E-02
    -21.961  0.2533E-02  0.2065E-02
    -21.851 -0.2111E-03  0.2041E-02
    -21.740 -0.3035E-03  0.2008E-02
    -21.629 -0.6410E-04  0.2001E-02
    -21.518 -0.5768E-05  0.2000E-02
    -21.407 -0.2533E-06  0.2000E-02
    -21.296 -0.5684E-08  0.2000E-02
    -21.185 -0.6656E-10  0.2000E-02
    -21.074 -0.4114E-12  0.2000E-02
    -20.963 -0.1351E-14  0.2000E-02
    -20.852 -0.4002E-17  0.2000E-02
    -20.741  0.0000E+00  0.2000E-02
    -20.630  0.0000E+00  0.2000E-02
    -20.519  0.0000E+00  0.2000E-02
    -20.408  0.0000E+00  0.2000E-02
    -20.297  0.0000E+00  0.2000E-02
    -20.186  0.0000E+00  0.2000E-02
    -20.075  0.0000E+00  0.2000E-02
    -19.964  0.0000E+00  0.2000E-02
    -19.853  0.0000E+00  0.2000E-02
    -19.742  0.0000E+00  0.2000E-02
    -19.631 -0.3556E-32  0.2000E-02
    -19.520 -0.2915E-28  0.2000E-02
    -19.409 -0.1285E-24  0.2000E-02
    -19.298 -0.3043E-21  0.2000E-02
    -19.187 -0.3866E-18  0.2000E-02
    -19.076 -0.2552E-15  0.2000E-02
    -18.965 -0.9227E-13  0.2000E-02
    -18.854 -0.1775E-10  0.2000E-02
    -18.743 -0.1805E-08  0.2000E-02
    -18.633 -0.9615E-07  0.2000E-02
    -18.522 -0.2637E-05  0.2000E-02
    -18.411 -0.3589E-04  0.1996E-02
    -18.300 -0.2201E-03  0.1971E-02
    -18.189 -0.3790E-03  0.1929E-02
    -18.078  0.1409E-02  0.2086E-02
    -17.967  0.6164E-02  0.2770E-02
    -17.856  0.7868E-02  0.3643E-02
    -17.745  0.3616E-02  0.4044E-02
    -17.634  0.8021E-04  0.4053E-02
    -17.523 -0.3668E-03  0.4012E-02
    -17.412 -0.9856E-04  0.4001E-02
    -17.301 -0.1054E-04  0.4000E-02
    -17.190 -0.5404E-06  0.4000E-02
    -17.079 -0.1406E-07  0.4000E-02
    -16.968 -0.1902E-09  0.4000E-02
    -16.857 -0.1355E-11  0.4000E-02
    -16.746 -0.5119E-14  0.4000E-02
    -16.635 -0.1201E-16  0.4000E-02
    -16.524  0.0000E+00  0.4000E-02
    -16.413  0.0000E+00  0.4000E-02
    -16.302  0.0000E+00  0.4000E-02
    -16.191  0.0000E+00  0.4000E-02
    -16.080  0.0000E+00  0.4000E-02
    -15.969  0.0000E+00  0.4000E-02
    -15.858  0.0000E+00  0.4000E-02
    -15.747  0.0000E+00  0.4000E-02
    -15.636  0.0000E+00  0.4000E-02
    -15.526  0.0000E+00  0.4000E-02
    -15.415  0.0000E+00  0.4000E-02
    -15.304  0.0000E+00  0.4000E-02
    -15.193  0.0000E+00  0.4000E-02
    -15.082  0.0000E+00  0.4000E-02
    -14.971  0.0000E+00  0.4000E-02
    -14.860  0.0000E+00  0.4000E-02
    -14.749  0.0000E+00  0.4000E-02
    -14.638  0.0000E+00  0.4000E-02
    -14.527  0.0000E+00  0.4000E-02
    -14.416  0.0000E+00  0.4000E-02
    -14.305  0.0000E+00  0.4000E-02
    -14.194  0.0000E+00  0.4000E-02
    -14.083  0.0000E+00  0.4000E-02
    -13.972  0.0000E+00  0.4000E-02
    -13.861  0.0000E+00  0.4000E-02
    -13.750  0.0000E+00  0.4000E-02
    -13.639  0.0000E+00  0.4000E-02
    -13.528  0.0000E+00  0.4000E-02
    -13.417  0.0000E+00  0.4000E-02
    -13.306  0.0000E+00  0.4000E-02
    -13.195  0.0000E+00  0.4000E-02
    -13.084  0.0000E+00  0.4000E-02
    -12.973  0.0000E+00  0.4000E-02
    -12.862  0.0000E+00  0.4000E-02
    -12.751  0.0000E+00  0.4000E-02
    -12.640  0.0000E+00  0.4000E-02
    -12.529  0.0000E+00  0.4000E-02
    -12.418  0.0000E+00  0.4000E-02
    -12.308  0.0000E+00  0.4000E-02
    -12.197  0.0000E+00  0.4000E-02
    -12.086  0.0000E+00  0.4000E-02
    -11.975  0.0000E+00  0.4000E-02
    -11.864  0.0000E+00  0.4000E-02
    -11.753  0.0000E+00  0.4000E-02
    -11.642  0.0000E+00  0.4000E-02
    -11.531  0.0000E+00  0.4000E-02
    -11.420  0.0000E+00  0.4000E-02
    -11.309  0.0000E+00  0.4000E-02
    -11.198  0.0000E+00  0.4000E-02
    -11.087  0.0000E+00  0.4000E-02
    -10.976  0.0000E+00  0.4000E-02
    -10.865  0.0000E+00  0.4000E-02
    -10.754  0.0000E+00  0.4000E-02
    -10.643 -0.6089E-31  0.4000E-02
    -10.532 -0.4124E-27  0.4000E-02
    -10.421 -0.1502E-23  0.4000E-02
    -10.310 -0.2936E-20  0.4000E-02
    -10.199 -0.3079E-17  0.4000E-02
    -10.088 -0.1673E-14  0.4000E-02
     -9.977 -0.4984E-12  0.4000E-02
     -9.866 -0.7883E-10  0.4000E-02
     -9.755 -0.6579E-08  0.4000E-02
     -9.644 -0.2864E-06  0.4000E-02
     -9.533 -0.6364E-05  0.3999E-02
     -9.422 -0.6883E-04  0.3992E-02
     -9.311 -0.3143E-03  0.3957E-02
     -9.200 -0.1751E-03  0.3937E-02
     -9.090  0.2697E-02  0.4237E-02
     -8.979  0.7387E-02  0.5056E-02
     -8.868  0.6965E-02  0.5829E-02
     -8.757  0.2158E-02  0.6069E-02
     -8.646 -0.2823E-03  0.6037E-02
     -8.535 -0.2774E-03  0.6007E-02
     -8.424 -0.5390E-04  0.6001E-02
     -8.313 -0.4551E-05  0.6000E-02
     -8.202 -0.1886E-06  0.6000E-02
     -8.091 -0.4004E-08  0.6000E-02
     -7.980 -0.4442E-10  0.6000E-02
     -7.869 -0.2602E-12  0.6000E-02
     -7.758 -0.8124E-15  0.6000E-02
     -7.647 -0.2920E-25  0.6000E-02
     -7.536 -0.7743E-22  0.6000E-02
     -7.425 -0.1102E-18  0.6000E-02
     -7.314 -0.8184E-16  0.6000E-02
     -7.203 -0.3308E-13  0.6000E-02
     -7.092 -0.7139E-11  0.6000E-02
     -6.981 -0.8158E-09  0.6000E-02
     -6.870 -0.4894E-07  0.6000E-02
     -6.759 -0.1518E-05  0.6000E-02
     -6.648 -0.2357E-04  0.5997E-02
     -6.537 -0.1695E-03  0.5978E-02
     -6.426 -0.4110E-03  0.5933E-02
     -6.315  0.7828E-03  0.6020E-02
     -6.204  0.5074E-02  0.6583E-02
     -6.093  0.7697E-02  0.7437E-02
     -5.982  0.5723E-02  0.8072E-02
     -5.872  0.6268E-02  0.8767E-02
     -5.761  0.7514E-02  0.9601E-02
     -5.650  0.3777E-02  0.1002E-01
     -5.539  0.4810E-03  0.1007E-01
     -5.428  0.1197E-02  0.1021E-01
     -5.317  0.3869E-02  0.1064E-01
     -5.206  0.4730E-02  0.1116E-01
     -5.095  0.4709E-02  0.1168E-01
     -4.984  0.1011E-01  0.1281E-01
     -4.873  0.1709E-01  0.1470E-01
     -4.762  0.1898E-01  0.1681E-01
     -4.651  0.1743E-01  0.1874E-01
     -4.540  0.1419E-01  0.2032E-01
     -4.429  0.1044E-01  0.2148E-01
     -4.318  0.9616E-02  0.2254E-01
     -4.207  0.1392E-01  0.2409E-01
     -4.096  0.1523E-01  0.2578E-01
     -3.985  0.1240E-01  0.2715E-01
     -3.874  0.2178E-01  0.2957E-01
     -3.763  0.4932E-01  0.3504E-01
     -3.652  0.8085E-01  0.4401E-01
     -3.541  0.9697E-01  0.5477E-01
     -3.430  0.1050E+00  0.6643E-01
     -3.319  0.1299E+00  0.8084E-01
     -3.208  0.1515E+00  0.9766E-01
     -3.097  0.1404E+00  0.1132E+00
     -2.986  0.1146E+00  0.1259E+00
     -2.875  0.1059E+00  0.1377E+00
     -2.764  0.1128E+00  0.1502E+00
     -2.654  0.1181E+00  0.1633E+00
     -2.543  0.1160E+00  0.1762E+00
     -2.432  0.1066E+00  0.1880E+00
     -2.321  0.9929E-01  0.1990E+00
     -2.210  0.9881E-01  0.2100E+00
     -2.099  0.1005E+00  0.2212E+00
     -1.988  0.1104E+00  0.2334E+00
     -1.877  0.1234E+00  0.2471E+00
     -1.766  0.1352E+00  0.2621E+00
     -1.655  0.1471E+00  0.2784E+00
     -1.544  0.1604E+00  0.2962E+00
     -1.433  0.1837E+00  0.3166E+00
     -1.322  0.1991E+00  0.3387E+00
     -1.211  0.1833E+00  0.3590E+00
     -1.100  0.1497E+00  0.3756E+00
     -0.989  0.1345E+00  0.3906E+00
     -0.878  0.1304E+00  0.4050E+00
     -0.767  0.1206E+00  0.4184E+00
     -0.656  0.1297E+00  0.4328E+00
     -0.545  0.1470E+00  0.4491E+00
     -0.434  0.1475E+00  0.4655E+00
     -0.323  0.1294E+00  0.4798E+00
     -0.212  0.1141E+00  0.4925E+00
     -0.101  0.1265E+00  0.5066E+00
      0.010  0.1499E+00  0.5232E+00
      0.121  0.1626E+00  0.5412E+00
      0.232  0.1577E+00  0.5587E+00
      0.343  0.1347E+00  0.5737E+00
      0.453  0.1211E+00  0.5871E+00
      0.564  0.1517E+00  0.6039E+00
      0.675  0.2043E+00  0.6266E+00
      0.786  0.2113E+00  0.6501E+00
      0.897  0.1638E+00  0.6682E+00
      1.008  0.1026E+00  0.6796E+00
      1.119  0.5361E-01  0.6856E+00
      1.230  0.2363E-01  0.6882E+00
      1.341  0.8370E-02  0.6891E+00
      1.452  0.5400E-02  0.6897E+00
      1.563  0.1611E-01  0.6915E+00
      1.674  0.2812E-01  0.6946E+00
      1.785  0.2713E-01  0.6976E+00
      1.896  0.1851E-01  0.6997E+00
      2.007  0.1718E-01  0.7016E+00
      2.118  0.2177E-01  0.7040E+00
      2.229  0.2117E-01  0.7064E+00
      2.340  0.1949E-01  0.7085E+00
      2.451  0.1886E-01  0.7106E+00
      2.562  0.1506E-01  0.7123E+00
      2.673  0.1171E-01  0.7136E+00
      2.784  0.1059E-01  0.7148E+00
      2.895  0.1220E-01  0.7161E+00
      3.006  0.1648E-01  0.7179E+00
      3.117  0.1988E-01  0.7202E+00
      3.228  0.2372E-01  0.7228E+00
      3.339  0.2657E-01  0.7257E+00
      3.450  0.2802E-01  0.7288E+00
      3.561  0.2906E-01  0.7321E+00
      3.671  0.2687E-01  0.7351E+00
      3.782  0.2641E-01  0.7380E+00
      3.893  0.2878E-01  0.7412E+00
      4.004  0.2680E-01  0.7441E+00
      4.115  0.1970E-01  0.7463E+00
      4.226  0.1129E-01  0.7476E+00
      4.337  0.7080E-02  0.7484E+00
      4.448  0.1214E-01  0.7497E+00
      4.559  0.2266E-01  0.7522E+00
      4.670  0.2711E-01  0.7552E+00
      4.781  0.2041E-01  0.7575E+00
      4.892  0.1240E-01  0.7589E+00
      5.003  0.1538E-01  0.7606E+00
      5.114  0.2560E-01  0.7634E+00
      5.225  0.2813E-01  0.7666E+00
      5.336  0.2033E-01  0.7688E+00
      5.447  0.1107E-01  0.7700E+00
      5.558  0.1279E-01  0.7715E+00
      5.669  0.2813E-01  0.7746E+00
      5.780  0.3635E-01  0.7786E+00
      5.891  0.2859E-01  0.7818E+00
      6.002  0.2041E-01  0.7841E+00
      6.113  0.1702E-01  0.7859E+00
      6.224  0.1460E-01  0.7876E+00
      6.335  0.1318E-01  0.7890E+00
      6.446  0.1334E-01  0.7905E+00
      6.557  0.1659E-01  0.7923E+00
      6.668  0.2254E-01  0.7948E+00
      6.779  0.2340E-01  0.7974E+00
      6.889  0.1531E-01  0.7991E+00
      7.000  0.5554E-02  0.7998E+00
      7.111  0.1394E-02  0.7999E+00
      7.222  0.7551E-03  0.8000E+00
      7.333  0.1964E-03  0.8000E+00
      7.444 -0.9207E-04  0.8000E+00
      7.555 -0.5343E-04  0.8000E+00
      7.666 -0.9438E-05  0.8000E+00
      7.777 -0.7579E-06  0.8000E+00
      7.888 -0.3039E-07  0.8000E+00
      7.999 -0.6310E-09  0.8000E+00
      8.110 -0.6902E-11  0.8000E+00
      8.221 -0.4014E-13  0.8000E+00
      8.332 -0.1250E-15  0.8000E+00
      8.443  0.0000E+00  0.8000E+00
      8.554  0.0000E+00  0.8000E+00
      8.665  0.0000E+00  0.8000E+00
      8.776  0.0000E+00  0.8000E+00
      8.887  0.0000E+00  0.8000E+00
      8.998  0.0000E+00  0.8000E+00
      9.109  0.0000E+00  0.8000E+00
