   67   67 1000    1
  0.3503968E+02  0.1114491E-08  0.1114491E-08  0.2182484E-08  0.0000000E+00
  1.000000000000000E-004
  CAR 
 Si-Diamond                              
    656      5    400
 
  0.0000000E+00  0.0000000E+00  0.0000000E+00  0.1111111E+00
    1      -22.180694   1.000000
    2      -17.939166   1.000000
    3       -8.985223   1.000000
    4       -6.156530   1.000000
    5       -5.836013   1.000000
    6       -5.487233   1.000000
    7       -4.981320   1.000000
    8       -4.824027   1.000000
    9       -4.696862   1.000000
   10       -4.529745   1.000000
   11       -4.345542   1.000000
   12       -4.021949   1.000000
   13       -4.012153   1.000000
   14       -4.011517   1.000000
   15       -3.998019   1.000000
   16       -3.977814   1.000000
   17       -3.977661   1.000000
   18       -3.939814   1.000000
   19       -3.915817   1.000000
   20       -3.914433   1.000000
   21       -3.886735   1.000000
   22       -3.794286   1.000000
   23       -3.781529   1.000000
   24       -3.777398   1.000000
   25       -3.771806   1.000000
   26       -3.632221   1.000000
   27       -3.628073   1.000000
   28       -3.623844   1.000000
   29       -3.472726   1.000000
   30       -3.465027   1.000000
   31       -3.443973   1.000000
   32       -3.431086   1.000000
   33       -3.426184   1.000000
   34       -3.420855   1.000000
   35       -3.402096   1.000000
   36       -3.396383   1.000000
   37       -3.356652   1.000000
   38       -3.285320   1.000000
   39       -3.252646   1.000000
   40       -3.235140   1.000000
   41       -3.215545   1.000000
   42       -3.210034   1.000000
   43       -3.208156   1.000000
   44       -3.207744   1.000000
   45       -3.205900   1.000000
   46       -3.204217   1.000000
   47       -3.201331   1.000000
   48       -3.196729   1.000000
   49       -3.182604   1.000000
   50       -3.177860   1.000000
   51       -3.166308   1.000000
   52       -3.147617   1.000000
   53       -3.136362   1.000000
   54       -3.136069   1.000000
   55       -3.131260   1.000000
   56       -3.094195   1.000000
   57       -3.075154   1.000000
   58       -3.044905   1.000000
   59       -2.948770   1.000000
   60       -2.939798   1.000000
   61       -2.930998   1.000000
   62       -2.918014   1.000000
   63       -2.907274   1.000000
   64       -2.904698   1.000000
   65       -2.854699   1.000000
   66       -2.851976   1.000000
   67       -2.833873   1.000000
   68       -2.825058   1.000000
   69       -2.814895   1.000000
   70       -2.792893   1.000000
   71       -2.784026   1.000000
   72       -2.781926   1.000000
   73       -2.756619   1.000000
   74       -2.755962   1.000000
   75       -2.748182   1.000000
   76       -2.741770   1.000000
   77       -2.735637   1.000000
   78       -2.716624   1.000000
   79       -2.684015   1.000000
   80       -2.657849   1.000000
   81       -2.654664   1.000000
   82       -2.635996   1.000000
   83       -2.622905   1.000000
   84       -2.622076   1.000000
   85       -2.552882   1.000000
   86       -2.491197   1.000000
   87       -2.474661   1.000000
   88       -2.468874   1.000000
   89       -2.466793   1.000000
   90       -2.429345   1.000000
   91       -2.415514   1.000000
   92       -2.376298   1.000000
   93       -2.369043   1.000000
   94       -2.368765   1.000000
   95       -2.363121   1.000000
   96       -2.360320   1.000000
   97       -2.352563   1.000000
   98       -2.323404   1.000000
   99       -2.310146   1.000000
  100       -2.307406   1.000000
  101       -2.305086   1.000000
  102       -2.282370   1.000000
  103       -2.281574   1.000000
  104       -2.277989   1.000000
  105       -2.270023   1.000000
  106       -2.269381   1.000000
  107       -2.260405   1.000000
  108       -2.252097   1.000000
  109       -2.180356   1.000000
  110       -2.103210   1.000000
  111       -2.083129   1.000000
  112       -2.069528   1.000000
  113       -2.057236   1.000000
  114       -2.056936   1.000000
  115       -2.051398   1.000000
  116       -2.027809   1.000000
  117       -2.010187   1.000000
  118       -1.980741   1.000000
  119       -1.948665   1.000000
  120       -1.943823   1.000000
  121       -1.931305   1.000000
  122       -1.928422   1.000000
  123       -1.928085   1.000000
  124       -1.926195   1.000000
  125       -1.908455   1.000000
  126       -1.893039   1.000000
  127       -1.882093   1.000000
  128       -1.825140   1.000000
  129       -1.791380   1.000000
  130       -1.790408   1.000000
  131       -1.757004   1.000000
  132       -1.751371   1.000000
  133       -1.742662   1.000000
  134       -1.722382   1.000000
  135       -1.721010   1.000000
  136       -1.718953   1.000000
  137       -1.714508   1.000000
  138       -1.713530   1.000000
  139       -1.707412   1.000000
  140       -1.707068   1.000000
  141       -1.703097   1.000000
  142       -1.664625   1.000000
  143       -1.653321   1.000000
  144       -1.633845   1.000000
  145       -1.632633   1.000000
  146       -1.544446   1.000000
  147       -1.535933   1.000000
  148       -1.530517   1.000000
  149       -1.523352   1.000000
  150       -1.514203   1.000000
  151       -1.507733   1.000000
  152       -1.496585   1.000000
  153       -1.489675   1.000000
  154       -1.475184   1.000000
  155       -1.438308   1.000000
  156       -1.438006   1.000000
  157       -1.415617   1.000000
  158       -1.367864   1.000000
  159       -1.364734   1.000000
  160       -1.364282   1.000000
  161       -1.349459   1.000000
  162       -1.322078   1.000000
  163       -1.314947   1.000000
  164       -1.292152   1.000000
  165       -1.289626   1.000000
  166       -1.255218   1.000000
  167       -1.254969   1.000000
  168       -1.244603   1.000000
  169       -1.234881   1.000000
  170       -1.229610   1.000000
  171       -1.225621   1.000000
  172       -1.216870   1.000000
  173       -1.210419   1.000000
  174       -1.208012   1.000000
  175       -1.205629   1.000000
  176       -1.203420   1.000000
  177       -1.199184   1.000000
  178       -1.189133   1.000000
  179       -1.187092   1.000000
  180       -1.185339   1.000000
  181       -1.182919   1.000000
  182       -1.182267   1.000000
  183       -1.181227   1.000000
  184       -1.175187   1.000000
  185       -1.173389   1.000000
  186       -1.168535   1.000000
  187       -1.160727   1.000000
  188       -1.156110   1.000000
  189       -1.149386   1.000000
  190       -1.131667   1.000000
  191       -1.128124   1.000000
  192       -1.122713   1.000000
  193       -1.120226   1.000000
  194       -1.065010   1.000000
  195       -1.053436   1.000000
  196       -1.045599   1.000000
  197       -1.018082   1.000000
  198       -1.014915   1.000000
  199       -0.978029   1.000000
  200       -0.940722   1.000000
  201       -0.935371   1.000000
  202       -0.909962   1.000000
  203       -0.908775   1.000000
  204       -0.894972   1.000000
  205       -0.867314   1.000000
  206       -0.854090   1.000000
  207       -0.834457   1.000000
  208       -0.809459   1.000000
  209       -0.787363   1.000000
  210       -0.763893   1.000000
  211       -0.753068   1.000000
  212       -0.744823   1.000000
  213       -0.743637   1.000000
  214       -0.738072   1.000000
  215       -0.734642   1.000000
  216       -0.734329   1.000000
  217       -0.720907   1.000000
  218       -0.719957   1.000000
  219       -0.710848   1.000000
  220       -0.710282   1.000000
  221       -0.702445   1.000000
  222       -0.669657   1.000000
  223       -0.669593   1.000000
  224       -0.663621   1.000000
  225       -0.596602   1.000000
  226       -0.591928   1.000000
  227       -0.583733   1.000000
  228       -0.566990   1.000000
  229       -0.562288   1.000000
  230       -0.556840   1.000000
  231       -0.520034   1.000000
  232       -0.514790   1.000000
  233       -0.503323   1.000000
  234       -0.494845   1.000000
  235       -0.487001   1.000000
  236       -0.461457   1.000000
  237       -0.434848   1.000000
  238       -0.417100   1.000000
  239       -0.406048   1.000000
  240       -0.405836   1.000000
  241       -0.374730   1.000000
  242       -0.365740   1.000000
  243       -0.350853   1.000000
  244       -0.342692   1.000000
  245       -0.330195   1.000000
  246       -0.310101   1.000000
  247       -0.294541   1.000000
  248       -0.272483   1.000000
  249       -0.266551   1.000000
  250       -0.255590   1.000000
  251       -0.246228   1.000000
  252       -0.232321   1.000000
  253       -0.218015   1.000000
  254       -0.199111   1.000000
  255       -0.180455   1.000000
  256       -0.175599   1.000000
  257       -0.174790   1.000000
  258       -0.169280   1.000000
  259       -0.154913   1.000000
  260       -0.152995   1.000000
  261       -0.147802   1.000000
  262       -0.145457   1.000000
  263       -0.140206   1.000000
  264       -0.131382   1.000000
  265       -0.106286   1.000000
  266       -0.069186   1.000000
  267       -0.058869   1.000000
  268       -0.010458   1.000000
  269       -0.008554   1.000000
  270       -0.004911   1.000000
  271        0.011958   1.000000
  272        0.023341   1.000000
  273        0.029306   1.000000
  274        0.035776   1.000000
  275        0.042349   1.000000
  276        0.053408   1.000000
  277        0.061223   1.000001
  278        0.082053   1.000001
  279        0.087828   1.000002
  280        0.104136   1.000003
  281        0.128895   1.000006
  282        0.129199   1.000006
  283        0.133126   1.000007
  284        0.139833   1.000009
  285        0.144887   1.000010
  286        0.216204   1.000088
  287        0.234430   1.000145
  288        0.276303   1.000430
  289        0.319107   1.001176
  290        0.322198   1.001260
  291        0.345222   1.002064
  292        0.381607   1.004219
  293        0.392224   1.005119
  294        0.413928   1.007430
  295        0.430694   1.009699
  296        0.459021   1.014548
  297        0.463113   1.015350
  298        0.469454   1.016640
  299        0.485476   1.020110
  300        0.569108   1.035387
  301        0.589887   1.034299
  302        0.591775   1.034000
  303        0.609694   1.029081
  304        0.618228   1.025225
  305        0.625034   1.021344
  306        0.679998   0.957082
  307        0.689715   0.938581
  308        0.697755   0.921492
  309        0.736068   0.817851
  310        0.737852   0.812165
  311        0.742306   0.797652
  312        0.776711   0.672285
  313        0.781628   0.652781
  314        0.785539   0.637050
  315        0.793150   0.605969
  316        0.796689   0.591336
  317        0.804721   0.557797
  318        0.809415   0.538045
  319        0.810898   0.531787
  320        0.813496   0.520811
  321        0.816783   0.506909
  322        0.820578   0.490852
  323        0.822430   0.483020
  324        0.871356   0.284457
  325        0.871723   0.283077
  326        0.872061   0.281809
  327        0.923193   0.117067
  328        0.934541   0.088870
  329        0.958946   0.039204
  330        0.967120   0.025845
  331        0.969381   0.022430
  332        0.978521   0.009818
  333        0.987279  -0.000533
  334        0.991021  -0.004461
  335        0.996867  -0.010033
  336        1.018802  -0.025326
  337        1.037257  -0.032344
  338        1.072813  -0.035136
  339        1.076697  -0.034833
  340        1.120103  -0.027274
  341        1.121305  -0.027003
  342        1.147144  -0.021062
  343        1.147320  -0.021022
  344        1.147541  -0.020972
  345        1.468627  -0.000021
  346        1.677874  -0.000000
  347        1.688554  -0.000000
  348        1.726550  -0.000000
  349        1.843652  -0.000000
  350        1.916800  -0.000000
  351        2.039220  -0.000000
  352        2.571533  -0.000000
  353        2.738462  -0.000000
  354        2.755971  -0.000000
  355        2.931741  -0.000000
  356        3.205555  -0.000000
  357        3.259831  -0.000000
  358        3.273307  -0.000000
  359        3.280760  -0.000000
  360        3.289547  -0.000000
  361        3.326708  -0.000000
  362        3.455636  -0.000000
  363        3.511532  -0.000000
  364        3.801985  -0.000000
  365        3.808390  -0.000000
  366        3.819712  -0.000000
  367        3.823623  -0.000000
  368        3.850397  -0.000000
  369        3.855267  -0.000000
  370        3.870435  -0.000000
  371        3.899170  -0.000000
  372        3.921516  -0.000000
  373        3.942408  -0.000000
  374        4.021413  -0.000000
  375        4.051797  -0.000000
  376        4.155792  -0.000000
  377        4.339094  -0.000000
  378        4.373471  -0.000000
  379        4.538221  -0.000000
  380        4.543093  -0.000000
  381        4.567870  -0.000000
  382        4.644838  -0.000000
  383        4.664429  -0.000000
  384        4.842829  -0.000000
  385        5.126684  -0.000000
  386        5.193215  -0.000000
  387        5.225478  -0.000000
  388        5.260265  -0.000000
  389        5.354328  -0.000000
  390        5.532786  -0.000000
  391        5.678037  -0.000000
  392        5.678580  -0.000000
  393        5.704601  -0.000000
  394        5.753410  -0.000000
  395        5.933033  -0.000000
  396        5.966273  -0.000000
  397        6.200683  -0.000000
  398        6.445411   0.000000
  399        7.069336   0.000000
  400        7.108790   0.000000
 
  0.3333333E+00 -0.3736539E-16  0.0000000E+00  0.2222222E+00
    1      -22.180663   1.000000
    2      -17.939212   1.000000
    3       -8.985195   1.000000
    4       -6.156747   1.000000
    5       -5.836050   1.000000
    6       -5.279219   1.000000
    7       -4.982057   1.000000
    8       -4.820869   1.000000
    9       -4.750004   1.000000
   10       -4.609484   1.000000
   11       -4.471320   1.000000
   12       -4.215495   1.000000
   13       -4.179518   1.000000
   14       -4.161687   1.000000
   15       -3.827405   1.000000
   16       -3.790401   1.000000
   17       -3.772122   1.000000
   18       -3.758123   1.000000
   19       -3.738479   1.000000
   20       -3.729090   1.000000
   21       -3.708622   1.000000
   22       -3.656188   1.000000
   23       -3.655276   1.000000
   24       -3.646455   1.000000
   25       -3.640413   1.000000
   26       -3.609777   1.000000
   27       -3.587590   1.000000
   28       -3.539642   1.000000
   29       -3.532944   1.000000
   30       -3.526783   1.000000
   31       -3.455099   1.000000
   32       -3.440898   1.000000
   33       -3.396849   1.000000
   34       -3.377522   1.000000
   35       -3.374023   1.000000
   36       -3.345945   1.000000
   37       -3.341076   1.000000
   38       -3.335269   1.000000
   39       -3.323201   1.000000
   40       -3.319284   1.000000
   41       -3.305796   1.000000
   42       -3.294313   1.000000
   43       -3.285233   1.000000
   44       -3.283862   1.000000
   45       -3.244489   1.000000
   46       -3.229490   1.000000
   47       -3.229173   1.000000
   48       -3.222170   1.000000
   49       -3.218402   1.000000
   50       -3.210235   1.000000
   51       -3.207572   1.000000
   52       -3.176695   1.000000
   53       -3.164795   1.000000
   54       -3.141746   1.000000
   55       -3.141716   1.000000
   56       -3.117394   1.000000
   57       -3.111878   1.000000
   58       -3.102340   1.000000
   59       -3.100400   1.000000
   60       -3.053092   1.000000
   61       -3.051338   1.000000
   62       -3.034694   1.000000
   63       -3.026797   1.000000
   64       -3.016815   1.000000
   65       -2.964456   1.000000
   66       -2.933029   1.000000
   67       -2.904384   1.000000
   68       -2.896268   1.000000
   69       -2.876282   1.000000
   70       -2.865459   1.000000
   71       -2.856338   1.000000
   72       -2.833116   1.000000
   73       -2.829325   1.000000
   74       -2.804811   1.000000
   75       -2.768662   1.000000
   76       -2.737710   1.000000
   77       -2.734545   1.000000
   78       -2.718792   1.000000
   79       -2.706341   1.000000
   80       -2.684204   1.000000
   81       -2.682907   1.000000
   82       -2.669277   1.000000
   83       -2.650767   1.000000
   84       -2.598679   1.000000
   85       -2.596562   1.000000
   86       -2.570407   1.000000
   87       -2.542353   1.000000
   88       -2.536895   1.000000
   89       -2.531884   1.000000
   90       -2.529647   1.000000
   91       -2.505346   1.000000
   92       -2.488856   1.000000
   93       -2.477664   1.000000
   94       -2.473527   1.000000
   95       -2.440189   1.000000
   96       -2.435763   1.000000
   97       -2.370969   1.000000
   98       -2.336510   1.000000
   99       -2.335121   1.000000
  100       -2.304532   1.000000
  101       -2.291574   1.000000
  102       -2.281655   1.000000
  103       -2.272372   1.000000
  104       -2.271059   1.000000
  105       -2.234788   1.000000
  106       -2.220559   1.000000
  107       -2.203730   1.000000
  108       -2.176854   1.000000
  109       -2.160296   1.000000
  110       -2.124760   1.000000
  111       -2.079537   1.000000
  112       -2.074297   1.000000
  113       -2.056400   1.000000
  114       -2.040616   1.000000
  115       -2.003925   1.000000
  116       -1.991815   1.000000
  117       -1.972554   1.000000
  118       -1.946074   1.000000
  119       -1.932459   1.000000
  120       -1.922053   1.000000
  121       -1.918240   1.000000
  122       -1.904823   1.000000
  123       -1.883973   1.000000
  124       -1.865746   1.000000
  125       -1.854048   1.000000
  126       -1.839509   1.000000
  127       -1.833559   1.000000
  128       -1.831176   1.000000
  129       -1.807447   1.000000
  130       -1.806176   1.000000
  131       -1.787326   1.000000
  132       -1.758752   1.000000
  133       -1.749545   1.000000
  134       -1.732443   1.000000
  135       -1.708097   1.000000
  136       -1.703724   1.000000
  137       -1.692846   1.000000
  138       -1.689385   1.000000
  139       -1.659963   1.000000
  140       -1.657316   1.000000
  141       -1.637053   1.000000
  142       -1.627697   1.000000
  143       -1.626020   1.000000
  144       -1.593341   1.000000
  145       -1.585776   1.000000
  146       -1.567683   1.000000
  147       -1.556733   1.000000
  148       -1.551743   1.000000
  149       -1.529329   1.000000
  150       -1.515666   1.000000
  151       -1.503884   1.000000
  152       -1.489175   1.000000
  153       -1.484656   1.000000
  154       -1.477774   1.000000
  155       -1.464430   1.000000
  156       -1.462207   1.000000
  157       -1.443300   1.000000
  158       -1.439945   1.000000
  159       -1.435365   1.000000
  160       -1.424430   1.000000
  161       -1.423763   1.000000
  162       -1.412707   1.000000
  163       -1.408558   1.000000
  164       -1.392539   1.000000
  165       -1.385978   1.000000
  166       -1.375091   1.000000
  167       -1.357494   1.000000
  168       -1.344995   1.000000
  169       -1.333703   1.000000
  170       -1.332537   1.000000
  171       -1.323324   1.000000
  172       -1.301172   1.000000
  173       -1.294257   1.000000
  174       -1.291872   1.000000
  175       -1.273375   1.000000
  176       -1.270241   1.000000
  177       -1.237046   1.000000
  178       -1.234514   1.000000
  179       -1.218414   1.000000
  180       -1.204879   1.000000
  181       -1.204174   1.000000
  182       -1.194115   1.000000
  183       -1.183135   1.000000
  184       -1.163349   1.000000
  185       -1.158535   1.000000
  186       -1.122681   1.000000
  187       -1.091027   1.000000
  188       -1.072490   1.000000
  189       -1.047360   1.000000
  190       -1.032612   1.000000
  191       -1.014101   1.000000
  192       -1.001354   1.000000
  193       -0.992012   1.000000
  194       -0.986071   1.000000
  195       -0.973807   1.000000
  196       -0.961058   1.000000
  197       -0.953027   1.000000
  198       -0.938868   1.000000
  199       -0.928385   1.000000
  200       -0.925020   1.000000
  201       -0.923057   1.000000
  202       -0.916756   1.000000
  203       -0.894279   1.000000
  204       -0.888456   1.000000
  205       -0.887308   1.000000
  206       -0.875428   1.000000
  207       -0.848431   1.000000
  208       -0.790332   1.000000
  209       -0.786003   1.000000
  210       -0.753397   1.000000
  211       -0.748396   1.000000
  212       -0.710847   1.000000
  213       -0.707600   1.000000
  214       -0.695339   1.000000
  215       -0.683513   1.000000
  216       -0.677646   1.000000
  217       -0.661163   1.000000
  218       -0.657854   1.000000
  219       -0.649518   1.000000
  220       -0.643870   1.000000
  221       -0.627560   1.000000
  222       -0.614718   1.000000
  223       -0.608954   1.000000
  224       -0.603928   1.000000
  225       -0.590596   1.000000
  226       -0.582159   1.000000
  227       -0.530654   1.000000
  228       -0.495013   1.000000
  229       -0.494327   1.000000
  230       -0.483902   1.000000
  231       -0.463186   1.000000
  232       -0.447794   1.000000
  233       -0.445552   1.000000
  234       -0.436748   1.000000
  235       -0.433488   1.000000
  236       -0.420227   1.000000
  237       -0.406085   1.000000
  238       -0.383457   1.000000
  239       -0.368476   1.000000
  240       -0.342184   1.000000
  241       -0.340683   1.000000
  242       -0.323008   1.000000
  243       -0.255568   1.000000
  244       -0.245574   1.000000
  245       -0.222943   1.000000
  246       -0.206070   1.000000
  247       -0.186462   1.000000
  248       -0.167940   1.000000
  249       -0.126320   1.000000
  250       -0.117857   1.000000
  251       -0.110055   1.000000
  252       -0.105830   1.000000
  253       -0.093897   1.000000
  254       -0.084330   1.000000
  255       -0.062549   1.000000
  256       -0.056869   1.000000
  257       -0.049938   1.000000
  258       -0.040143   1.000000
  259       -0.024962   1.000000
  260       -0.005437   1.000000
  261        0.010757   1.000000
  262        0.029329   1.000000
  263        0.036977   1.000000
  264        0.037380   1.000000
  265        0.066888   1.000001
  266        0.074860   1.000001
  267        0.075906   1.000001
  268        0.090677   1.000002
  269        0.111812   1.000003
  270        0.115418   1.000004
  271        0.122553   1.000005
  272        0.129261   1.000006
  273        0.148856   1.000012
  274        0.151173   1.000013
  275        0.170468   1.000023
  276        0.182955   1.000033
  277        0.187678   1.000039
  278        0.194327   1.000047
  279        0.209147   1.000072
  280        0.220406   1.000099
  281        0.227078   1.000119
  282        0.249798   1.000219
  283        0.255457   1.000253
  284        0.270569   1.000372
  285        0.302484   1.000805
  286        0.343901   1.002008
  287        0.360046   1.002789
  288        0.361450   1.002867
  289        0.367834   1.003249
  290        0.397016   1.005573
  291        0.399998   1.005871
  292        0.422507   1.008536
  293        0.445674   1.012105
  294        0.447992   1.012510
  295        0.469068   1.016560
  296        0.508255   1.025341
  297        0.511231   1.026025
  298        0.544080   1.032756
  299        0.560125   1.034832
  300        0.565277   1.035214
  301        0.568873   1.035379
  302        0.577586   1.035391
  303        0.578275   1.035366
  304        0.582686   1.035109
  305        0.589159   1.034405
  306        0.603697   1.031175
  307        0.612355   1.027993
  308        0.638307   1.011491
  309        0.640517   1.009536
  310        0.648233   1.001951
  311        0.651536   0.998332
  312        0.672762   0.969357
  313        0.674474   0.966566
  314        0.686040   0.945855
  315        0.686416   0.945126
  316        0.690094   0.937813
  317        0.690977   0.936007
  318        0.696549   0.924158
  319        0.711784   0.887765
  320        0.715536   0.877904
  321        0.735564   0.819444
  322        0.736146   0.817603
  323        0.751597   0.766002
  324        0.764045   0.720909
  325        0.777253   0.670153
  326        0.783044   0.647105
  327        0.791348   0.613379
  328        0.811431   0.529537
  329        0.823315   0.479277
  330        0.830528   0.448853
  331        0.839208   0.412547
  332        0.839660   0.410668
  333        0.848647   0.373688
  334        0.858136   0.335551
  335        0.858895   0.332549
  336        0.894605   0.202087
  337        0.930002   0.099758
  338        0.952819   0.050279
  339        0.977223   0.011495
  340        1.001814  -0.014230
  341        1.006022  -0.017444
  342        1.008647  -0.019287
  343        1.076616  -0.034841
  344        1.123851  -0.026425
  345        1.267199  -0.003364
  346        1.577510  -0.000001
  347        1.599237  -0.000000
  348        1.708895  -0.000000
  349        1.765085  -0.000000
  350        1.811493  -0.000000
  351        2.047938  -0.000000
  352        2.114201  -0.000000
  353        2.215844  -0.000000
  354        2.328394  -0.000000
  355        2.376974  -0.000000
  356        2.503475  -0.000000
  357        2.691599  -0.000000
  358        2.895476  -0.000000
  359        2.971907  -0.000000
  360        3.062851  -0.000000
  361        3.140489  -0.000000
  362        3.173980  -0.000000
  363        3.260657  -0.000000
  364        3.371670  -0.000000
  365        3.453625  -0.000000
  366        3.515227  -0.000000
  367        3.556810  -0.000000
  368        3.558758  -0.000000
  369        3.690878  -0.000000
  370        3.789113  -0.000000
  371        3.825653  -0.000000
  372        3.995198  -0.000000
  373        3.997090  -0.000000
  374        4.141404  -0.000000
  375        4.389679  -0.000000
  376        4.558187  -0.000000
  377        4.659826  -0.000000
  378        4.662393  -0.000000
  379        4.791013  -0.000000
  380        4.966523  -0.000000
  381        5.066241  -0.000000
  382        5.088487  -0.000000
  383        5.090551  -0.000000
  384        5.218010  -0.000000
  385        5.249124  -0.000000
  386        5.550134  -0.000000
  387        5.626690  -0.000000
  388        5.671893  -0.000000
  389        5.715733  -0.000000
  390        5.793081  -0.000000
  391        5.811268  -0.000000
  392        5.935250  -0.000000
  393        6.106986  -0.000000
  394        6.262196  -0.000000
  395        6.362254   0.000000
  396        6.593992   0.000000
  397        6.670980   0.000000
  398        6.697394   0.000000
  399        6.804678   0.000000
  400        6.835717   0.000000
 
  0.0000000E+00  0.3333333E+00  0.0000000E+00  0.2222222E+00
    1      -22.180704   1.000000
    2      -17.939208   1.000000
    3       -8.985197   1.000000
    4       -6.156622   1.000000
    5       -5.836610   1.000000
    6       -5.280641   1.000000
    7       -4.981067   1.000000
    8       -4.844877   1.000000
    9       -4.701239   1.000000
   10       -4.633229   1.000000
   11       -4.454943   1.000000
   12       -4.205806   1.000000
   13       -4.187498   1.000000
   14       -4.181183   1.000000
   15       -3.833204   1.000000
   16       -3.783661   1.000000
   17       -3.772745   1.000000
   18       -3.755535   1.000000
   19       -3.738429   1.000000
   20       -3.731044   1.000000
   21       -3.704908   1.000000
   22       -3.660509   1.000000
   23       -3.655623   1.000000
   24       -3.646873   1.000000
   25       -3.636047   1.000000
   26       -3.614624   1.000000
   27       -3.584378   1.000000
   28       -3.540076   1.000000
   29       -3.534202   1.000000
   30       -3.527673   1.000000
   31       -3.447751   1.000000
   32       -3.442526   1.000000
   33       -3.395702   1.000000
   34       -3.380834   1.000000
   35       -3.379201   1.000000
   36       -3.362305   1.000000
   37       -3.346891   1.000000
   38       -3.340011   1.000000
   39       -3.321717   1.000000
   40       -3.316842   1.000000
   41       -3.301981   1.000000
   42       -3.292000   1.000000
   43       -3.285467   1.000000
   44       -3.278805   1.000000
   45       -3.247151   1.000000
   46       -3.230906   1.000000
   47       -3.229336   1.000000
   48       -3.224225   1.000000
   49       -3.221530   1.000000
   50       -3.210149   1.000000
   51       -3.205455   1.000000
   52       -3.195958   1.000000
   53       -3.161297   1.000000
   54       -3.147006   1.000000
   55       -3.143164   1.000000
   56       -3.130823   1.000000
   57       -3.107242   1.000000
   58       -3.099777   1.000000
   59       -3.076335   1.000000
   60       -3.051504   1.000000
   61       -3.048353   1.000000
   62       -3.035390   1.000000
   63       -3.020638   1.000000
   64       -3.015643   1.000000
   65       -2.969219   1.000000
   66       -2.931046   1.000000
   67       -2.910343   1.000000
   68       -2.902286   1.000000
   69       -2.874438   1.000000
   70       -2.867428   1.000000
   71       -2.854663   1.000000
   72       -2.840653   1.000000
   73       -2.827614   1.000000
   74       -2.810058   1.000000
   75       -2.764550   1.000000
   76       -2.745274   1.000000
   77       -2.728638   1.000000
   78       -2.712415   1.000000
   79       -2.700748   1.000000
   80       -2.689072   1.000000
   81       -2.677106   1.000000
   82       -2.665230   1.000000
   83       -2.636998   1.000000
   84       -2.609827   1.000000
   85       -2.582854   1.000000
   86       -2.565170   1.000000
   87       -2.543343   1.000000
   88       -2.533928   1.000000
   89       -2.524158   1.000000
   90       -2.509771   1.000000
   91       -2.504510   1.000000
   92       -2.485940   1.000000
   93       -2.478362   1.000000
   94       -2.469839   1.000000
   95       -2.444303   1.000000
   96       -2.435581   1.000000
   97       -2.379877   1.000000