 vasp.5.4.4.18Apr17-6-g9f103f2a35 (build Aug 16 2021 22:57:11) complex          
  
 POSCAR found type information on POSCAR  Pd N  O 
 03/POSCAR found :  3 types and      67 ions
 scaLAPACK will be used

 ----------------------------------------------------------------------------- 
|                                                                             |
|  ADVICE TO THIS USER RUNNING 'VASP/VAMP'   (HEAR YOUR MASTER'S VOICE ...):  |
|                                                                             |
|      You have a (more or less) 'large supercell' and for larger cells       |
|      it might be more efficient to use real space projection opertators     |
|      So try LREAL= Auto  in the INCAR   file.                               |
|      Mind:          For very  accurate calculation you might also keep the  |
|      reciprocal projection scheme          (i.e. LREAL=.FALSE.)             |
|                                                                             |
 ----------------------------------------------------------------------------- 

 LDA part: xc-table for Pade appr. of Perdew
 00/POSCAR found :  3 types and      67 ions
 06/POSCAR found :  3 types and      67 ions
 Jacobian:    26.7849458530529     
 POSCAR, INCAR and KPOINTS ok, starting setup
 FFT: planning ...
 WAVECAR not read
 entering main loop
       N       E                     dE             d eps       ncg     rms          rms(c)
DAV:   1     0.381632932177E+04    0.38163E+04   -0.26679E+05  4072   0.117E+03
DAV:   2    -0.124173131008E+03   -0.39405E+04   -0.36912E+04  4472   0.285E+02
DAV:   3    -0.347813507596E+03   -0.22364E+03   -0.20016E+03  4464   0.614E+01
DAV:   4    -0.355982763165E+03   -0.81693E+01   -0.78431E+01  4704   0.115E+01
DAV:   5    -0.356264187608E+03   -0.28142E+00   -0.28055E+00  4632   0.224E+00    0.512E+01
DAV:   6    -0.343200337340E+03    0.13064E+02   -0.64991E+01  4288   0.196E+01    0.330E+01
DAV:   7    -0.387496099947E+03   -0.44296E+02   -0.36374E+01  4864   0.423E+01    0.546E+01
DAV:   8    -0.356270553308E+03    0.31226E+02   -0.41016E+01  4808   0.364E+01    0.320E+01
DAV:   9    -0.350672307386E+03    0.55982E+01   -0.25658E+01  4416   0.248E+01    0.327E+01
DAV:  10    -0.340510205462E+03    0.10162E+02   -0.16200E+01  4064   0.170E+01    0.152E+01
DAV:  11    -0.339718665588E+03    0.79154E+00   -0.72545E+00  4272   0.121E+01    0.153E+01
DAV:  12    -0.339572394914E+03    0.14627E+00   -0.61597E+00  4128   0.933E+00    0.136E+01
DAV:  13    -0.338254399383E+03    0.13180E+01   -0.20637E+00  4088   0.654E+00    0.547E+00
DAV:  14    -0.338330315546E+03   -0.75916E-01   -0.10894E+00  4176   0.428E+00    0.658E+00
DAV:  15    -0.338171111840E+03    0.15920E+00   -0.57441E-01  4192   0.307E+00    0.441E+00
DAV:  16    -0.338098044729E+03    0.73067E-01   -0.36543E-01  4112   0.245E+00    0.330E+00
DAV:  17    -0.338051353205E+03    0.46692E-01   -0.12881E-01  4192   0.143E+00    0.257E+00
DAV:  18    -0.338020700949E+03    0.30652E-01   -0.10929E-01  4208   0.129E+00    0.194E+00
DAV:  19    -0.338001939573E+03    0.18761E-01   -0.57750E-02  4144   0.881E-01    0.109E+00
DAV:  20    -0.337998147409E+03    0.37922E-02   -0.21584E-02  4216   0.600E-01    0.730E-01
DAV:  21    -0.337995455774E+03    0.26916E-02   -0.89698E-03  4192   0.394E-01    0.488E-01
DAV:  22    -0.337995650389E+03   -0.19462E-03   -0.55486E-03  4232   0.288E-01    0.528E-01
DAV:  23    -0.337993573992E+03    0.20764E-02   -0.41835E-03  4256   0.259E-01    0.269E-01
DAV:  24    -0.337993503809E+03    0.70183E-04   -0.21443E-03  4184   0.170E-01    0.252E-01
DAV:  25    -0.337993535933E+03   -0.32124E-04   -0.12987E-03  4176   0.143E-01    0.230E-01
DAV:  26    -0.337993323818E+03    0.21212E-03   -0.81433E-04  4112   0.115E-01    0.129E-01
DAV:  27    -0.337993438002E+03   -0.11418E-03   -0.36700E-04  4160   0.747E-02    0.116E-01
DAV:  28    -0.337993730829E+03   -0.29283E-03   -0.33725E-04  4024   0.702E-02    0.106E-01
DAV:  29    -0.337993910482E+03   -0.17965E-03   -0.19904E-04  4176   0.528E-02    0.865E-02
DAV:  30    -0.337994380683E+03   -0.47020E-03   -0.19889E-04  4016   0.519E-02    0.777E-02
DAV:  31    -0.337994877284E+03   -0.49660E-03   -0.16367E-04  4096   0.417E-02    0.522E-02
DAV:  32    -0.337995104084E+03   -0.22680E-03   -0.53338E-05  4200   0.251E-02    0.393E-02
DAV:  33    -0.337995395751E+03   -0.29167E-03   -0.43109E-05  4128   0.224E-02    0.374E-02
DAV:  34    -0.337995614969E+03   -0.21922E-03   -0.29618E-05  4192   0.187E-02    0.260E-02
DAV:  35    -0.337995874347E+03   -0.25938E-03   -0.21361E-05  4152   0.140E-02    0.191E-02
DAV:  36    -0.337996075658E+03   -0.20131E-03   -0.15125E-05  3912   0.121E-02    0.159E-02
DAV:  37    -0.337996237696E+03   -0.16204E-03   -0.65003E-06  3368   0.900E-03    0.148E-02
DAV:  38    -0.337996543655E+03   -0.30596E-03   -0.94338E-06  3544   0.852E-03    0.110E-02
DAV:  39    -0.337996688923E+03   -0.14527E-03   -0.40474E-06  3400   0.625E-03    0.979E-03
DAV:  40    -0.337996849372E+03   -0.16045E-03   -0.46846E-06  3264   0.557E-03    0.804E-03
DAV:  41    -0.337996893401E+03   -0.44029E-04   -0.11548E-06  2768   0.308E-03    0.514E-03
DAV:  42    -0.337996962283E+03   -0.68882E-04   -0.23287E-06  3032   0.269E-03    0.327E-03
DAV:  43    -0.337996987420E+03   -0.25137E-04   -0.61731E-07  2624   0.202E-03    0.207E-03
DAV:  44    -0.337997009912E+03   -0.22492E-04   -0.88143E-07  2712   0.147E-03    0.184E-03
DAV:  45    -0.337997015328E+03   -0.54163E-05   -0.16908E-07  2560   0.111E-03    0.108E-03
DAV:  46    -0.337997019825E+03   -0.44974E-05   -0.13787E-07  2376   0.669E-04    0.914E-04
DAV:  47    -0.337997022971E+03   -0.31453E-05   -0.10669E-07  2416   0.598E-04    0.586E-04
DAV:  48    -0.337997024668E+03   -0.16972E-05   -0.71349E-08  2448   0.414E-04    0.550E-04
DAV:  49    -0.337997025622E+03   -0.95411E-06   -0.49333E-08  2400   0.351E-04
   1 F= -.33799703E+03 E0= -.33788321E+03  d E =-.337997E+03
quench:  g(F)=  0.000E+00 g(S)=  0.000E+00 dE (1.order)= 0.000E+00
 bond charge predicted
       N       E                     dE             d eps       ncg     rms          rms(c)
DAV:   1    -0.337997094206E+03   -0.69538E-04   -0.20305E-05  4080   0.613E-03    0.129E-03
DAV:   2    -0.337997094601E+03   -0.39512E-06   -0.58681E-07  2424   0.203E-03    0.449E-03
DAV:   3    -0.337997094494E+03    0.10735E-06   -0.19187E-07  2144   0.191E-03    0.226E-03
DAV:   4    -0.337997094514E+03   -0.19871E-07   -0.48786E-08  2112   0.104E-03    0.960E-04
DAV:   5    -0.337997094622E+03   -0.10817E-06   -0.41312E-08  2184   0.854E-04
   2 F= -.33799709E+03 E0= -.33788328E+03  d E =-.690000E-04
quench:  g(F)=  0.000E+00 g(S)=  0.000E+00 dE (1.order)= 0.000E+00
 bond charge predicted
       N       E                     dE             d eps       ncg     rms          rms(c)
DAV:   1    -0.337997230755E+03   -0.13624E-03   -0.80770E-05  4080   0.123E-02    0.276E-03
DAV:   2    -0.337997231270E+03   -0.51408E-06   -0.22226E-06  2584   0.346E-03    0.673E-03
DAV:   3    -0.337997231013E+03    0.25632E-06   -0.55177E-07  2120   0.296E-03    0.260E-03
DAV:   4    -0.337997231048E+03   -0.34590E-07   -0.17228E-07  2128   0.171E-03    0.230E-03
DAV:   5    -0.337997231302E+03   -0.25410E-06   -0.30735E-07  2168   0.246E-03
   3 F= -.33799723E+03 E0= -.33788343E+03  d E =-.136680E-03
quench:  g(F)=  0.000E+00 g(S)=  0.000E+00 dE (1.order)= 0.000E+00
 bond charge predicted
       N       E                     dE             d eps       ncg     rms          rms(c)
DAV:   1    -0.337997434248E+03   -0.20320E-03   -0.18094E-04  4064   0.186E-02    0.436E-03
DAV:   2    -0.337997436330E+03   -0.20820E-05   -0.57556E-06  3120   0.698E-03    0.160E-02
DAV:   3    -0.337997435029E+03    0.13009E-05   -0.21889E-06  2328   0.667E-03    0.840E-03
DAV:   4    -0.337997434635E+03    0.39453E-06   -0.75488E-07  2200   0.374E-03    0.351E-03
DAV:   5    -0.337997434768E+03   -0.13268E-06   -0.45080E-07  2104   0.269E-03
   4 F= -.33799743E+03 E0= -.33788362E+03  d E =-.203466E-03
quench:  g(F)=  0.000E+00 g(S)=  0.000E+00 dE (1.order)= 0.000E+00
 bond charge predicted
       N       E                     dE             d eps       ncg     rms          rms(c)
DAV:   1    -0.337997704037E+03   -0.26940E-03   -0.31942E-04  4040   0.246E-02    0.634E-03
DAV:   2    -0.337997707878E+03   -0.38406E-05   -0.12229E-05  3928   0.103E-02    0.216E-02
DAV:   3    -0.337997705311E+03    0.25671E-05   -0.49832E-06  2496   0.927E-03    0.115E-02
DAV:   4    -0.337997704834E+03    0.47684E-06   -0.16477E-06  2280   0.538E-03    0.774E-03
DAV:   5    -0.337997704645E+03    0.18943E-06   -0.91023E-07  2128   0.395E-03
   5 F= -.33799770E+03 E0= -.33788390E+03  d E =-.269877E-03
quench:  g(F)=  0.000E+00 g(S)=  0.000E+00 dE (1.order)= 0.000E+00
 bond charge predicted
       N       E                     dE             d eps       ncg     rms          rms(c)
DAV:   1    -0.337998039175E+03   -0.33434E-03   -0.49358E-04  4016   0.307E-02    0.829E-03
DAV:   2    -0.337998045570E+03   -0.63954E-05   -0.20184E-05  4032   0.148E-02    0.266E-02
DAV:   3    -0.337998040609E+03    0.49610E-05   -0.75926E-06  2952   0.122E-02    0.124E-02
DAV:   4    -0.337998040273E+03    0.33629E-06   -0.21613E-06  2280   0.615E-03    0.962E-03
DAV:   5    -0.337998040203E+03    0.69849E-07   -0.15776E-06  2200   0.531E-03
   6 F= -.33799804E+03 E0= -.33788424E+03  d E =-.335558E-03
quench:  g(F)=  0.000E+00 g(S)=  0.000E+00 dE (1.order)= 0.000E+00
 bond charge predicted
       N       E                     dE             d eps       ncg     rms          rms(c)
DAV:   1    -0.337998438508E+03   -0.39824E-03   -0.70555E-04  4008   0.369E-02    0.107E-02
DAV:   2    -0.337998451169E+03   -0.12661E-04   -0.34901E-05  4064   0.197E-02    0.396E-02
DAV:   3    -0.337998440197E+03    0.10972E-04   -0.16393E-05  3880   0.164E-02    0.126E-02
DAV:   4    -0.337998440238E+03   -0.41415E-07   -0.29989E-06  2464   0.707E-03    0.131E-02
DAV:   5    -0.337998439865E+03    0.37342E-06   -0.24135E-06  2288   0.667E-03
   7 F= -.33799844E+03 E0= -.33788463E+03  d E =-.399662E-03
quench:  g(F)=  0.000E+00 g(S)=  0.000E+00 dE (1.order)= 0.000E+00
 bond charge predicted
       N       E                     dE             d eps       ncg     rms          rms(c)
DAV:   1    -0.337998901057E+03   -0.46082E-03   -0.95101E-04  4000   0.430E-02    0.127E-02
DAV:   2    -0.337998926748E+03   -0.25691E-04   -0.53334E-05  4128   0.269E-02    0.564E-02
DAV:   3    -0.337998909961E+03    0.16787E-04   -0.32107E-05  4120   0.248E-02    0.351E-02
DAV:   4    -0.337998902084E+03    0.78776E-05   -0.87173E-06  2848   0.127E-02    0.955E-03
DAV:   5    -0.337998902567E+03   -0.48355E-06   -0.27376E-06  2432   0.640E-03
   8 F= -.33799890E+03 E0= -.33788511E+03  d E =-.462702E-03
quench:  g(F)=  0.000E+00 g(S)=  0.000E+00 dE (1.order)= 0.000E+00
 bond charge predicted
       N       E                     dE             d eps       ncg     rms          rms(c)
DAV:   1    -0.337999425386E+03   -0.52330E-03   -0.12323E-03  4008   0.490E-02    0.150E-02
DAV:   2    -0.337999451840E+03   -0.26454E-04   -0.67549E-05  4088   0.285E-02    0.573E-02
DAV:   3    -0.337999428037E+03    0.23803E-04   -0.33561E-05  4184   0.236E-02    0.166E-02
DAV:   4    -0.337999427066E+03    0.97015E-06   -0.49476E-06  2976   0.829E-03    0.110E-02
DAV:   5    -0.337999429672E+03   -0.26059E-05   -0.44408E-06  2368   0.933E-03    0.216E-02
DAV:   6    -0.337999427645E+03    0.20269E-05   -0.49383E-06  2344   0.980E-03    0.125E-02
DAV:   7    -0.337999426575E+03    0.10702E-05   -0.16254E-06  2368   0.642E-03    0.492E-03
DAV:   8    -0.337999426829E+03   -0.25404E-06   -0.83144E-07  2120   0.377E-03
   9 F= -.33799943E+03 E0= -.33788563E+03  d E =-.524262E-03
quench:  g(F)=  0.000E+00 g(S)=  0.000E+00 dE (1.order)= 0.000E+00
 bond charge predicted
       N       E                     dE             d eps       ncg     rms          rms(c)
DAV:   1    -0.338000009236E+03   -0.58266E-03   -0.15485E-03  4000   0.543E-02    0.108E-02
DAV:   2    -0.338000015622E+03   -0.63853E-05   -0.39804E-05  3992   0.135E-02    0.223E-02
DAV:   3    -0.338000012783E+03    0.28385E-05   -0.62128E-06  3056   0.109E-02    0.120E-02
DAV:   4    -0.338000014569E+03   -0.17858E-05   -0.45000E-06  2448   0.909E-03    0.193E-02
DAV:   5    -0.338000013812E+03    0.75717E-06   -0.49793E-06  2360   0.988E-03
  10 F= -.33800001E+03 E0= -.33788625E+03  d E =-.586983E-03
quench:  g(F)=  0.000E+00 g(S)=  0.000E+00 dE (1.order)= 0.000E+00
 bond charge predicted
       N       E                     dE             d eps       ncg     rms          rms(c)
DAV:   1    -0.338000653088E+03   -0.63852E-03   -0.18929E-03  4000   0.605E-02    0.142E-02
DAV:   2    -0.338000664745E+03   -0.11657E-04   -0.56988E-05  4008   0.186E-02    0.343E-02
DAV:   3    -0.338000657728E+03    0.70164E-05   -0.16280E-05  3848   0.159E-02    0.161E-02
DAV:   4    -0.338000660491E+03   -0.27628E-05   -0.75257E-06  2608   0.117E-02    0.252E-02
DAV:   5    -0.338000658195E+03    0.22965E-05   -0.72446E-06  2408   0.118E-02    0.168E-02
DAV:   6    -0.338000657046E+03    0.11491E-05   -0.35874E-06  2416   0.849E-03    0.998E-03
DAV:   7    -0.338000656609E+03    0.43658E-06   -0.18550E-06  2368   0.641E-03
  11 F= -.33800066E+03 E0= -.33788688E+03  d E =-.642797E-03
quench:  g(F)=  0.000E+00 g(S)=  0.000E+00 dE (1.order)= 0.000E+00
 bond charge predicted
       N       E                     dE             d eps       ncg     rms          rms(c)
DAV:   1    -0.338001355400E+03   -0.69835E-03   -0.22712E-03  4000   0.658E-02    0.144E-02
DAV:   2    -0.338001370413E+03   -0.15013E-04   -0.65767E-05  4048   0.194E-02    0.375E-02
DAV:   3    -0.338001362320E+03    0.80932E-05   -0.20298E-05  3928   0.183E-02    0.226E-02
DAV:   4    -0.338001362670E+03   -0.34986E-06   -0.85883E-06  2592   0.126E-02    0.222E-02
DAV:   5    -0.338001360441E+03    0.22293E-05   -0.50067E-06  2456   0.987E-03    0.115E-02
DAV:   6    -0.338001360380E+03    0.60594E-07   -0.31645E-06  2344   0.781E-03
  12 F= -.33800136E+03 E0= -.33788759E+03  d E =-.703771E-03
quench:  g(F)=  0.000E+00 g(S)=  0.000E+00 dE (1.order)= 0.000E+00
 bond charge predicted
       N       E                     dE             d eps       ncg     rms          rms(c)
DAV:   1    -0.338002113800E+03   -0.75336E-03   -0.26835E-03  4000   0.717E-02    0.164E-02
DAV:   2    -0.338002131079E+03   -0.17279E-04   -0.76699E-05  4032   0.207E-02    0.411E-02
DAV:   3    -0.338002123252E+03    0.78269E-05   -0.22850E-05  4088   0.200E-02    0.277E-02
DAV:   4    -0.338002121998E+03    0.12545E-05   -0.11457E-05  2800   0.146E-02    0.230E-02
DAV:   5    -0.338002120885E+03    0.11123E-05   -0.76884E-06  2584   0.117E-02    0.177E-02
DAV:   6    -0.338002119253E+03    0.16327E-05   -0.46808E-06  2464   0.925E-03    0.964E-03
DAV:   7    -0.338002119385E+03   -0.13204E-06   -0.26514E-06  2328   0.674E-03
  13 F= -.33800212E+03 E0= -.33788839E+03  d E =-.759005E-03
quench:  g(F)=  0.000E+00 g(S)=  0.000E+00 dE (1.order)= 0.000E+00
 bond charge predicted
       N       E                     dE             d eps       ncg     rms          rms(c)
DAV:   1    -0.338002927735E+03   -0.80848E-03   -0.31168E-03  4000   0.771E-02    0.158E-02
DAV:   2    -0.338002940586E+03   -0.12851E-04   -0.79386E-05  4008   0.189E-02    0.309E-02
DAV:   3    -0.338002938188E+03    0.23983E-05   -0.15160E-05  3840   0.176E-02    0.276E-02
DAV:   4    -0.338002936016E+03    0.21718E-05   -0.10445E-05  2624   0.140E-02    0.201E-02
DAV:   5    -0.338002935296E+03    0.71997E-06   -0.63917E-06  2496   0.107E-02
  14 F= -.33800294E+03 E0= -.33788922E+03  d E =-.815911E-03
quench:  g(F)=  0.000E+00 g(S)=  0.000E+00 dE (1.order)= 0.000E+00
 bond charge predicted
       N       E                     dE             d eps       ncg     rms          rms(c)
DAV:   1    -0.338003795265E+03   -0.85925E-03   -0.35856E-03  4000   0.831E-02    0.202E-02
DAV:   2    -0.338003829681E+03   -0.34416E-04   -0.12221E-04  4064   0.301E-02    0.638E-02
DAV:   3    -0.338003804325E+03    0.25356E-04   -0.43094E-05  4224   0.264E-02    0.240E-02
DAV:   4    -0.338003808977E+03   -0.46520E-05   -0.13872E-05  3264   0.160E-02    0.345E-02
DAV:   5    -0.338003803054E+03    0.59227E-05   -0.12831E-05  3248   0.153E-02    0.168E-02
DAV:   6    -0.338003802508E+03    0.54669E-06   -0.55774E-06  2688   0.104E-02
  15 F= -.33800380E+03 E0= -.33789008E+03  d E =-.867212E-03
quench:  g(F)=  0.000E+00 g(S)=  0.000E+00 dE (1.order)= 0.000E+00
 bond charge predicted
       N       E                     dE             d eps       ncg     rms          rms(c)
DAV:   1    -0.338004712741E+03   -0.90969E-03   -0.40853E-03  4000   0.884E-02    0.198E-02
DAV:   2    -0.338004733653E+03   -0.20912E-04   -0.10717E-04  4000   0.219E-02    0.435E-02
DAV:   3    -0.338004726756E+03    0.68972E-05   -0.28527E-05  4176   0.225E-02    0.323E-02
DAV:   4    -0.338004729022E+03   -0.22659E-05   -0.19288E-05  3176   0.190E-02    0.356E-02
DAV:   5    -0.338004722635E+03    0.63864E-05   -0.12691E-05  2848   0.148E-02    0.180E-02
DAV:   6    -0.338004721198E+03    0.14371E-05   -0.57418E-06  2704   0.104E-02    0.112E-02
DAV:   7    -0.338004721683E+03   -0.48481E-06   -0.31417E-06  2480   0.775E-03
  16 F= -.33800472E+03 E0= -.33789099E+03  d E =-.919175E-03
quench:  g(F)=  0.000E+00 g(S)=  0.000E+00 dE (1.order)= 0.000E+00
 bond charge predicted
       N       E                     dE             d eps       ncg     rms          rms(c)
DAV:   1    -0.338005680975E+03   -0.95978E-03   -0.45961E-03  4000   0.933E-02    0.188E-02
DAV:   2    -0.338005698845E+03   -0.17870E-04   -0.11325E-04  4000   0.207E-02    0.367E-02
DAV:   3    -0.338005695615E+03    0.32304E-05   -0.23125E-05  4048   0.200E-02    0.319E-02
DAV:   4    -0.338005695486E+03    0.12921E-06   -0.15524E-05  3240   0.172E-02    0.302E-02
DAV:   5    -0.338005691905E+03    0.35806E-05   -0.10903E-05  3016   0.144E-02    0.184E-02
DAV:   6    -0.338005690943E+03    0.96235E-06   -0.63746E-06  2768   0.111E-02
  17 F= -.33800569E+03 E0= -.33789197E+03  d E =-.969260E-03
quench:  g(F)=  0.000E+00 g(S)=  0.000E+00 dE (1.order)= 0.000E+00
 bond charge predicted
       N       E                     dE             d eps       ncg     rms          rms(c)
DAV:   1    -0.338006696184E+03   -0.10043E-02   -0.51469E-03  4000   0.988E-02    0.227E-02
DAV:   2    -0.338006729537E+03   -0.33354E-04   -0.14352E-04  4048   0.280E-02    0.561E-02
DAV:   3    -0.338006712688E+03    0.16849E-04   -0.44773E-05  4224   0.277E-02    0.356E-02
DAV:   4    -0.338006714104E+03   -0.14153E-05   -0.22751E-05  3832   0.204E-02    0.361E-02
DAV:   5    -0.338006707641E+03    0.64625E-05   -0.12038E-05  2936   0.148E-02    0.183E-02
DAV:   6    -0.338006707119E+03    0.52232E-06   -0.71440E-06  2640   0.113E-02
  18 F= -.33800671E+03 E0= -.33789300E+03  d E =-.101618E-02
quench:  g(F)=  0.000E+00 g(S)=  0.000E+00 dE (1.order)= 0.000E+00
 bond charge predicted
       N       E                     dE             d eps       ncg     rms          rms(c)
DAV:   1    -0.338007755253E+03   -0.10476E-02   -0.57087E-03  4000   0.104E-01    0.238E-02
DAV:   2    -0.338007790536E+03   -0.35283E-04   -0.15896E-04  4032   0.302E-02    0.575E-02
DAV:   3    -0.338007773446E+03    0.17090E-04   -0.47378E-05  4184   0.288E-02    0.372E-02
DAV:   4    -0.338007776328E+03   -0.28818E-05   -0.25552E-05  3896   0.218E-02    0.401E-02
DAV:   5    -0.338007770040E+03    0.62875E-05   -0.18282E-05  3784   0.183E-02    0.254E-02
DAV:   6    -0.338007766734E+03    0.33060E-05   -0.98152E-06  3024   0.130E-02    0.135E-02
DAV:   7    -0.338007766760E+03   -0.25357E-07   -0.53999E-06  2720   0.966E-03
  19 F= -.33800777E+03 E0= -.33789411E+03  d E =-.105964E-02
quench:  g(F)=  0.000E+00 g(S)=  0.000E+00 dE (1.order)= 0.000E+00
 bond charge predicted
       N       E                     dE             d eps       ncg     rms          rms(c)
DAV:   1    -0.338008857598E+03   -0.10909E-02   -0.62889E-03  4000   0.109E-01    0.223E-02
DAV:   2    -0.338008882118E+03   -0.24520E-04   -0.15707E-04  4000   0.258E-02    0.422E-02
DAV:   3    -0.338008877381E+03    0.47369E-05   -0.30336E-05  4160   0.241E-02    0.368E-02
DAV:   4    -0.338008876457E+03    0.92389E-06   -0.21422E-05  3576   0.202E-02    0.334E-02
DAV:   5    -0.338008873427E+03    0.30297E-05   -0.15661E-05  3480   0.168E-02    0.250E-02
DAV:   6    -0.338008870743E+03    0.26841E-05   -0.97340E-06  3040   0.130E-02    0.158E-02
DAV:   7    -0.338008870380E+03    0.36309E-06   -0.50810E-06  2584   0.944E-03
  20 F= -.33800887E+03 E0= -.33789519E+03  d E =-.110362E-02
quench:  g(F)=  0.000E+00 g(S)=  0.000E+00 dE (1.order)= 0.000E+00
 bond charge predicted
       N       E                     dE             d eps       ncg     rms          rms(c)
DAV:   1    -0.338010001127E+03   -0.11304E-02   -0.68921E-03  4000   0.114E-01    0.241E-02
DAV:   2    -0.338010037338E+03   -0.36211E-04   -0.18217E-04  4032   0.314E-02    0.558E-02
DAV:   3    -0.338010017532E+03    0.19806E-04   -0.40129E-05  4168   0.271E-02    0.294E-02
DAV:   4    -0.338010026577E+03   -0.90454E-05   -0.24360E-05  3888   0.210E-02    0.443E-02
DAV:   5    -0.338010018204E+03    0.83732E-05   -0.20721E-05  3688   0.201E-02    0.266E-02
DAV:   6    -0.338010015205E+03    0.29994E-05   -0.11444E-05  3224   0.141E-02    0.172E-02
DAV:   7    -0.338010014925E+03    0.27999E-06   -0.64829E-06  2728   0.104E-02
  21 F= -.33801001E+03 E0= -.33789639E+03  d E =-.114454E-02
quench:  g(F)=  0.000E+00 g(S)=  0.000E+00 dE (1.order)= 0.000E+00
 bond charge predicted
       N       E                     dE             d eps       ncg     rms          rms(c)
DAV:   1    -0.338011180837E+03   -0.11656E-02   -0.75109E-03  4000   0.119E-01    0.246E-02
DAV:   2    -0.338011212245E+03   -0.31408E-04   -0.18746E-04  4000   0.289E-02    0.486E-02
DAV:   3    -0.338011201834E+03    0.10411E-04   -0.35869E-05  4168   0.263E-02    0.355E-02
DAV:   4    -0.338011206019E+03   -0.41849E-05   -0.26436E-05  3848   0.223E-02    0.416E-02
DAV:   5    -0.338011200608E+03    0.54106E-05   -0.21541E-05  3768   0.196E-02    0.306E-02
DAV:   6    -0.338011195923E+03    0.46854E-05   -0.12478E-05  3256   0.143E-02    0.151E-02
DAV:   7    -0.338011195987E+03   -0.64239E-07   -0.55888E-06  3032   0.101E-02
  22 F= -.33801120E+03 E0= -.33789755E+03  d E =-.118106E-02
quench:  g(F)=  0.000E+00 g(S)=  0.000E+00 dE (1.order)= 0.000E+00
 bond charge predicted
       N       E                     dE             d eps       ncg     rms          rms(c)
DAV:   1    -0.338012395673E+03   -0.11998E-02   -0.81511E-03  4000   0.123E-01    0.260E-02
DAV:   2    -0.338012436859E+03   -0.41186E-04   -0.21321E-04  4032   0.333E-02    0.592E-02
DAV:   3    -0.338012415204E+03    0.21655E-04   -0.46360E-05  4144   0.289E-02    0.323E-02
DAV:   4    -0.338012424771E+03   -0.95667E-05   -0.27799E-05  4000   0.224E-02    0.470E-02
DAV:   5    -0.338012414694E+03    0.10077E-04   -0.22317E-05  3840   0.210E-02    0.256E-02
DAV:   6    -0.338012412640E+03    0.20539E-05   -0.12428E-05  3392   0.150E-02    0.201E-02
DAV:   7    -0.338012411819E+03    0.82033E-06   -0.75426E-06  2936   0.111E-02
  23 F= -.33801241E+03 E0= -.33789882E+03  d E =-.121583E-02
quench:  g(F)=  0.000E+00 g(S)=  0.000E+00 dE (1.order)= 0.000E+00
 bond charge predicted
       N       E                     dE             d eps       ncg     rms          rms(c)
DAV:   1    -0.338013642214E+03   -0.12296E-02   -0.87951E-03  4000   0.128E-01    0.272E-02
DAV:   2    -0.338013686515E+03   -0.44302E-04   -0.23066E-04  4000   0.350E-02    0.611E-02
DAV:   3    -0.338013667599E+03    0.18916E-04   -0.51808E-05  4208   0.315E-02    0.413E-02
DAV:   4    -0.338013668508E+03   -0.90925E-06   -0.30841E-05  4048   0.238E-02    0.412E-02
DAV:   5    -0.338013665558E+03    0.29508E-05   -0.24991E-05  4008   0.207E-02    0.345E-02
DAV:   6    -0.338013659264E+03    0.62933E-05   -0.15461E-05  3560   0.158E-02    0.158E-02
DAV:   7    -0.338013659478E+03   -0.21399E-06   -0.65976E-06  3200   0.111E-02
  24 F= -.33801366E+03 E0= -.33790005E+03  d E =-.124766E-02
quench:  g(F)=  0.000E+00 g(S)=  0.000E+00 dE (1.order)= 0.000E+00
 bond charge predicted
       N       E                     dE             d eps       ncg     rms          rms(c)
DAV:   1    -0.338014917283E+03   -0.12580E-02   -0.94623E-03  4000   0.132E-01    0.281E-02
DAV:   2    -0.338014965998E+03   -0.48715E-04   -0.24883E-04  4032   0.361E-02    0.651E-02
DAV:   3    -0.338014940834E+03    0.25165E-04   -0.57591E-05  4144   0.318E-02    0.370E-02
DAV:   4    -0.338014949652E+03   -0.88182E-05   -0.32282E-05  4064   0.243E-02    0.489E-02
DAV:   5    -0.338014939029E+03    0.10623E-04   -0.24713E-05  4000   0.221E-02    0.269E-02
DAV:   6    -0.338014936999E+03    0.20301E-05   -0.14493E-05  3584   0.162E-02    0.220E-02
DAV:   7    -0.338014935844E+03    0.11547E-05   -0.88118E-06  3168   0.120E-02    0.170E-02
DAV:   8    -0.338014934852E+03    0.99248E-06   -0.47798E-06  2504   0.915E-03
  25 F= -.33801493E+03 E0= -.33790137E+03  d E =-.127537E-02
quench:  g(F)=  0.000E+00 g(S)=  0.000E+00 dE (1.order)= 0.000E+00
 bond charge predicted
       N       E                     dE             d eps       ncg     rms          rms(c)
DAV:   1    -0.338016217721E+03   -0.12819E-02   -0.10138E-02  4000   0.136E-01    0.263E-02
DAV:   2    -0.338016247950E+03   -0.30229E-04   -0.23779E-04  4000   0.282E-02    0.421E-02
DAV:   3    -0.338016249482E+03   -0.15324E-05   -0.34700E-05  4200   0.256E-02    0.466E-02
DAV:   4    -0.338016242715E+03    0.67672E-05   -0.29304E-05  4056   0.235E-02    0.332E-02
DAV:   5    -0.338016244422E+03   -0.17074E-05   -0.21011E-05  3928   0.195E-02    0.345E-02
DAV:   6    -0.338016237816E+03    0.66064E-05   -0.15201E-05  3560   0.158E-02    0.175E-02
DAV:   7    -0.338016237736E+03    0.79999E-07   -0.70437E-06  3112   0.106E-02
  26 F= -.33801624E+03 E0= -.33790271E+03  d E =-.130288E-02
quench:  g(F)=  0.000E+00 g(S)=  0.000E+00 dE (1.order)= 0.000E+00
 bond charge predicted
       N       E                     dE             d eps       ncg     rms          rms(c)
DAV:   1    -0.338017543108E+03   -0.13053E-02   -0.10804E-02  4000   0.141E-01    0.296E-02
DAV:   2    -0.338017600677E+03   -0.57570E-04   -0.28952E-04  4008   0.409E-02    0.716E-02
DAV:   3    -0.338017570977E+03    0.29700E-04   -0.65376E-05  4176   0.351E-02    0.412E-02
DAV:   4    -0.338017576047E+03   -0.50696E-05   -0.34719E-05  4088   0.253E-02    0.475E-02
DAV:   5    -0.338017569888E+03    0.61590E-05   -0.31233E-05  4104   0.232E-02    0.353E-02
DAV:   6    -0.338017563954E+03    0.59334E-05   -0.17525E-05  3720   0.171E-02    0.188E-02
DAV:   7    -0.338017564165E+03   -0.21115E-06   -0.98515E-06  3328   0.127E-02
  27 F= -.33801756E+03 E0= -.33790401E+03  d E =-.132643E-02
quench:  g(F)=  0.000E+00 g(S)=  0.000E+00 dE (1.order)= 0.000E+00
 bond charge predicted
       N       E                     dE             d eps       ncg     rms          rms(c)
DAV:   1    -0.338018887286E+03   -0.13233E-02   -0.11494E-02  4000   0.145E-01    0.310E-02
DAV:   2    -0.338018942484E+03   -0.55198E-04   -0.29127E-04  4016   0.374E-02    0.680E-02
DAV:   3    -0.338018916306E+03    0.26177E-04   -0.64568E-05  4144   0.337E-02    0.406E-02
DAV:   4    -0.338018928294E+03   -0.11987E-04   -0.42062E-05  4136   0.277E-02    0.559E-02
DAV:   5    -0.338018915757E+03    0.12537E-04   -0.33461E-05  4128   0.249E-02    0.347E-02
DAV:   6    -0.338018909405E+03    0.63519E-05   -0.18532E-05  3704   0.174E-02    0.182E-02
DAV:   7    -0.338018911037E+03   -0.16317E-05   -0.10396E-05  3528   0.131E-02    0.220E-02
DAV:   8    -0.338018908128E+03    0.29085E-05   -0.59456E-06  2672   0.104E-02    0.973E-03
DAV:   9    -0.338018907410E+03    0.71858E-06   -0.14333E-06  2240   0.533E-03
  28 F= -.33801891E+03 E0= -.33790540E+03  d E =-.134324E-02
quench:  g(F)=  0.000E+00 g(S)=  0.000E+00 dE (1.order)= 0.000E+00
 bond charge predicted
       N       E                     dE             d eps       ncg     rms          rms(c)
DAV:   1    -0.338020248600E+03   -0.13405E-02   -0.12212E-02  4000   0.149E-01    0.287E-02
DAV:   2    -0.338020286658E+03   -0.38058E-04   -0.28639E-04  4016   0.323E-02    0.489E-02
DAV:   3    -0.338020285534E+03    0.11242E-05   -0.40946E-05  4224   0.285E-02    0.500E-02
DAV:   4    -0.338020278082E+03    0.74512E-05   -0.33988E-05  4112   0.253E-02    0.365E-02
DAV:   5    -0.338020280156E+03   -0.20731E-05   -0.25109E-05  4152   0.215E-02    0.381E-02
DAV:   6    -0.338020273058E+03    0.70978E-05   -0.18036E-05  3768   0.173E-02    0.216E-02
DAV:   7    -0.338020271569E+03    0.14886E-05   -0.84246E-06  3264   0.119E-02    0.152E-02
DAV:   8    -0.338020270880E+03    0.68892E-06   -0.35946E-06  2432   0.827E-03
  29 F= -.33802027E+03 E0= -.33790677E+03  d E =-.136347E-02
quench:  g(F)=  0.000E+00 g(S)=  0.000E+00 dE (1.order)= 0.000E+00
 bond charge predicted
       N       E                     dE             d eps       ncg     rms          rms(c)
DAV:   1    -0.338021624382E+03   -0.13528E-02   -0.12901E-02  4000   0.152E-01    0.299E-02
DAV:   2    -0.338021668331E+03   -0.43949E-04   -0.30585E-04  4000   0.344E-02    0.552E-02
DAV:   3    -0.338021659302E+03    0.90293E-05   -0.47840E-05  4168   0.298E-02    0.456E-02
DAV:   4    -0.338021660740E+03   -0.14385E-05   -0.36946E-05  4072   0.264E-02    0.463E-02
DAV:   5    -0.338021656287E+03    0.44535E-05   -0.30998E-05  4176   0.239E-02    0.368E-02
DAV:   6    -0.338021650073E+03    0.62136E-05   -0.18445E-05  3792   0.178E-02    0.216E-02
DAV:   7    -0.338021649025E+03    0.10479E-05   -0.92734E-06  3336   0.123E-02    0.177E-02
DAV:   8    -0.338021648351E+03    0.67459E-06   -0.53200E-06  2696   0.981E-03
  30 F= -.33802165E+03 E0= -.33790817E+03  d E =-.137747E-02
quench:  g(F)=  0.000E+00 g(S)=  0.000E+00 dE (1.order)= 0.000E+00
 bond charge predicted
       N       E                     dE             d eps       ncg     rms          rms(c)
DAV:   1    -0.338023012000E+03   -0.13630E-02   -0.13591E-02  4000   0.156E-01    0.303E-02
DAV:   2    -0.338023053004E+03   -0.41004E-04   -0.31258E-04  4000   0.328E-02    0.503E-02
DAV:   3    -0.338023048930E+03    0.40734E-05   -0.42759E-05  4168   0.286E-02    0.467E-02
DAV:   4    -0.338023050312E+03   -0.13818E-05   -0.38962E-05  4080   0.271E-02    0.471E-02
DAV:   5    -0.338023047274E+03    0.30377E-05   -0.32149E-05  4192   0.249E-02    0.407E-02
DAV:   6    -0.338023038355E+03    0.89194E-05   -0.19478E-05  3864   0.184E-02    0.198E-02
DAV:   7    -0.338023038289E+03    0.65666E-07   -0.93817E-06  3376   0.122E-02
  31 F= -.33802304E+03 E0= -.33790962E+03  d E =-.138994E-02
quench:  g(F)=  0.000E+00 g(S)=  0.000E+00 dE (1.order)= 0.000E+00
 bond charge predicted
       N       E                     dE             d eps       ncg     rms          rms(c)
DAV:   1    -0.338024412513E+03   -0.13742E-02   -0.14260E-02  4000   0.160E-01    0.337E-02
DAV:   2    -0.338024485402E+03   -0.72889E-04   -0.37122E-04  4000   0.460E-02    0.802E-02
DAV:   3    -0.338024447337E+03    0.38065E-04   -0.82681E-05  4192   0.393E-02    0.451E-02
DAV:   4    -0.338024456371E+03   -0.90342E-05   -0.45296E-05  4168   0.288E-02    0.558E-02
DAV:   5    -0.338024448326E+03    0.80455E-05   -0.41920E-05  4200   0.273E-02    0.426E-02
DAV:   6    -0.338024439010E+03    0.93161E-05   -0.22657E-05  3872   0.198E-02    0.204E-02
DAV:   7    -0.338024439578E+03   -0.56855E-06   -0.11352E-05  3608   0.143E-02    0.211E-02
DAV:   8    -0.338024437490E+03    0.20888E-05   -0.64829E-06  3000   0.110E-02    0.131E-02
DAV:   9    -0.338024436282E+03    0.12075E-05   -0.20754E-06  2368   0.657E-03    0.439E-03
DAV:  10    -0.338024436182E+03    0.10033E-06   -0.53574E-07  2104   0.279E-03
  32 F= -.33802444E+03 E0= -.33791102E+03  d E =-.139789E-02
quench:  g(F)=  0.000E+00 g(S)=  0.000E+00 dE (1.order)= 0.000E+00
 bond charge predicted
       N       E                     dE             d eps       ncg     rms          rms(c)
DAV:   1    -0.338025816588E+03   -0.13803E-02   -0.15011E-02  4000   0.163E-01    0.315E-02
DAV:   2    -0.338025867549E+03   -0.50961E-04   -0.35081E-04  4000   0.366E-02    0.602E-02
DAV:   3    -0.338025860798E+03    0.67510E-05   -0.58150E-05  4184   0.329E-02    0.546E-02
DAV:   4    -0.338025853786E+03    0.70113E-05   -0.41563E-05  4152   0.281E-02    0.432E-02
DAV:   5    -0.338025852858E+03    0.92804E-06   -0.33049E-05  4216   0.239E-02    0.395E-02
DAV:   6    -0.338025846102E+03    0.67560E-05   -0.21380E-05  3904   0.189E-02    0.231E-02
DAV:   7    -0.338025844189E+03    0.19135E-05   -0.96941E-06  3528   0.131E-02    0.165E-02
DAV:   8    -0.338025843956E+03    0.23235E-06   -0.52587E-06  2656   0.973E-03
  33 F= -.33802584E+03 E0= -.33791243E+03  d E =-.140777E-02
quench:  g(F)=  0.000E+00 g(S)=  0.000E+00 dE (1.order)= 0.000E+00
 bond charge predicted
       N       E                     dE             d eps       ncg     rms          rms(c)
DAV:   1    -0.338027227399E+03   -0.13832E-02   -0.15688E-02  4000   0.166E-01    0.323E-02
DAV:   2    -0.338027277036E+03   -0.49637E-04   -0.35917E-04  4000   0.363E-02    0.573E-02
DAV:   3    -0.338027271084E+03    0.59517E-05   -0.53923E-05  4168   0.321E-02    0.526E-02
DAV:   4    -0.338027268671E+03    0.24131E-05   -0.44209E-05  4128   0.289E-02    0.475E-02
DAV:   5    -0.338027265866E+03    0.28053E-05   -0.34341E-05  4208   0.255E-02    0.408E-02
DAV:   6    -0.338027257431E+03    0.84352E-05   -0.21577E-05  3968   0.193E-02    0.219E-02
DAV:   7    -0.338027256972E+03    0.45839E-06   -0.10924E-05  3616   0.131E-02    0.196E-02
DAV:   8    -0.338027255937E+03    0.10352E-05   -0.64709E-06  2896   0.107E-02    0.136E-02
DAV:   9    -0.338027254308E+03    0.16287E-05   -0.23521E-06  2376   0.680E-03    0.353E-03
DAV:  10    -0.338027254323E+03   -0.14959E-07   -0.50915E-07  2088   0.245E-03
  34 F= -.33802725E+03 E0= -.33791389E+03  d E =-.141037E-02
quench:  g(F)=  0.000E+00 g(S)=  0.000E+00 dE (1.order)= 0.000E+00
 bond charge predicted
       N       E                     dE             d eps       ncg     rms          rms(c)
DAV:   1    -0.338028642020E+03   -0.13877E-02   -0.16408E-02  4000   0.169E-01    0.324E-02
DAV:   2    -0.338028691226E+03   -0.49205E-04   -0.37060E-04  4032   0.358E-02    0.555E-02
DAV:   3    -0.338028690897E+03    0.32892E-06   -0.53864E-05  4232   0.327E-02    0.576E-02
DAV:   4    -0.338028680580E+03    0.10317E-04   -0.44727E-05  4192   0.291E-02    0.418E-02
DAV:   5    -0.338028681999E+03   -0.14193E-05   -0.32088E-05  4248   0.240E-02    0.417E-02
DAV:   6    -0.338028674038E+03    0.79613E-05   -0.23348E-05  3928   0.195E-02    0.244E-02
DAV:   7    -0.338028671945E+03    0.20923E-05   -0.10967E-05  3584   0.136E-02    0.168E-02
DAV:   8    -0.338028671144E+03    0.80143E-06   -0.48490E-06  2648   0.941E-03
  35 F= -.33802867E+03 E0= -.33791531E+03  d E =-.141682E-02
quench:  g(F)=  0.000E+00 g(S)=  0.000E+00 dE (1.order)= 0.000E+00
 bond charge predicted
       N       E                     dE             d eps       ncg     rms          rms(c)
DAV:   1    -0.338030057838E+03   -0.13859E-02   -0.17083E-02  4000   0.172E-01    0.336E-02
DAV:   2    -0.338030114934E+03   -0.57095E-04   -0.39006E-04  4000   0.386E-02    0.638E-02
DAV:   3    -0.338030104673E+03    0.10261E-04   -0.62817E-05  4152   0.342E-02    0.548E-02
DAV:   4    -0.338030102287E+03    0.23857E-05   -0.47627E-05  4168   0.300E-02    0.497E-02
DAV:   5    -0.338030097735E+03    0.45524E-05   -0.36514E-05  4216   0.261E-02    0.404E-02
DAV:   6    -0.338030090750E+03    0.69841E-05   -0.23105E-05  3952   0.200E-02    0.247E-02
DAV:   7    -0.338030089221E+03    0.15292E-05   -0.12010E-05  3664   0.140E-02    0.194E-02
DAV:   8    -0.338030088600E+03    0.62145E-06   -0.70783E-06  2984   0.112E-02
  36 F= -.33803009E+03 E0= -.33791676E+03  d E =-.141746E-02
quench:  g(F)=  0.000E+00 g(S)=  0.000E+00 dE (1.order)= 0.000E+00
 bond charge predicted
       N       E                     dE             d eps       ncg     rms          rms(c)
DAV:   1    -0.338031474568E+03   -0.13853E-02   -0.17767E-02  4000   0.175E-01    0.338E-02
DAV:   2    -0.338031529453E+03   -0.54885E-04   -0.39782E-04  4000   0.376E-02    0.606E-02
DAV:   3    -0.338031523143E+03    0.63105E-05   -0.61380E-05  4168   0.339E-02    0.551E-02
DAV:   4    -0.338031521581E+03    0.15618E-05   -0.49313E-05  4152   0.308E-02    0.517E-02
DAV:   5    -0.338031516852E+03    0.47291E-05   -0.40449E-05  4200   0.269E-02    0.428E-02
DAV:   6    -0.338031507587E+03    0.92656E-05   -0.22518E-05  3928   0.199E-02    0.212E-02
DAV:   7    -0.338031507455E+03    0.13111E-06   -0.10417E-05  3664   0.134E-02    0.201E-02
DAV:   8    -0.338031506278E+03    0.11773E-05   -0.69043E-06  2928   0.110E-02    0.144E-02
DAV:   9    -0.338031504608E+03    0.16704E-05   -0.26698E-06  2376   0.698E-03    0.437E-03
DAV:  10    -0.338031504589E+03    0.18779E-07   -0.60990E-07  2104   0.272E-03
  37 F= -.33803150E+03 E0= -.33791822E+03  d E =-.141599E-02
quench:  g(F)=  0.000E+00 g(S)=  0.000E+00 dE (1.order)= 0.000E+00
 bond charge predicted
       N       E                     dE             d eps       ncg     rms          rms(c)
DAV:   1    -0.338032891130E+03   -0.13865E-02   -0.18487E-02  4000   0.177E-01    0.339E-02
DAV:   2    -0.338032945872E+03   -0.54741E-04   -0.40871E-04  4016   0.373E-02    0.588E-02
DAV:   3    -0.338032945400E+03    0.47163E-06   -0.60513E-05  4232   0.344E-02    0.611E-02
DAV:   4    -0.338032933674E+03    0.11726E-04   -0.49793E-05  4232   0.307E-02    0.439E-02
DAV:   5    -0.338032934842E+03   -0.11676E-05   -0.34421E-05  4256   0.251E-02    0.434E-02
DAV:   6    -0.338032926522E+03    0.83198E-05   -0.25796E-05  4104   0.204E-02    0.258E-02
DAV:   7    -0.338032924106E+03    0.24158E-05   -0.12116E-05  3800   0.143E-02    0.173E-02
DAV:   8    -0.338032923353E+03    0.75272E-06   -0.52804E-06  2888   0.997E-03
  38 F= -.33803292E+03 E0= -.33791965E+03  d E =-.141876E-02
quench:  g(F)=  0.000E+00 g(S)=  0.000E+00 dE (1.order)= 0.000E+00
 bond charge predicted
       N       E                     dE             d eps       ncg     rms          rms(c)
DAV:   1    -0.338034305987E+03   -0.13819E-02   -0.19157E-02  4000   0.180E-01    0.349E-02
DAV:   2    -0.338034368955E+03   -0.62967E-04   -0.42902E-04  4000   0.403E-02    0.672E-02
DAV:   3    -0.338034358914E+03    0.10041E-04   -0.71636E-05  4168   0.364E-02    0.590E-02
DAV:   4    -0.338034353505E+03    0.54092E-05   -0.52340E-05  4160   0.316E-02    0.506E-02
DAV:   5    -0.338034349229E+03    0.42755E-05   -0.39793E-05  4216   0.266E-02    0.414E-02
DAV:   6    -0.338034341791E+03    0.74380E-05   -0.24165E-05  3992   0.205E-02    0.248E-02
DAV:   7    -0.338034340418E+03    0.13727E-05   -0.12150E-05  3712   0.143E-02    0.202E-02
DAV:   8    -0.338034339651E+03    0.76718E-06   -0.75543E-06  3024   0.115E-02
  39 F= -.33803434E+03 E0= -.33792109E+03  d E =-.141630E-02
quench:  g(F)=  0.000E+00 g(S)=  0.000E+00 dE (1.order)= 0.000E+00
 bond charge predicted
       N       E                     dE             d eps       ncg     rms          rms(c)
DAV:   1    -0.338035718240E+03   -0.13778E-02   -0.19836E-02  4000   0.182E-01    0.351E-02
DAV:   2    -0.338035778224E+03   -0.59984E-04   -0.43284E-04  4000   0.386E-02    0.635E-02
DAV:   3    -0.338035773631E+03    0.45924E-05   -0.68654E-05  4168   0.355E-02    0.607E-02
DAV:   4    -0.338035767475E+03    0.61562E-05   -0.54263E-05  4144   0.323E-02    0.511E-02
DAV:   5    -0.338035763623E+03    0.38521E-05   -0.40093E-05  4192   0.272E-02    0.433E-02
DAV:   6    -0.338035754568E+03    0.90550E-05   -0.24641E-05  4008   0.207E-02    0.232E-02
DAV:   7    -0.338035754276E+03    0.29173E-06   -0.12514E-05  3832   0.143E-02    0.213E-02
DAV:   8    -0.338035752930E+03    0.13466E-05   -0.79788E-06  3048   0.118E-02    0.149E-02
DAV:   9    -0.338035751127E+03    0.18026E-05   -0.29020E-06  2376   0.734E-03    0.471E-03
DAV:  10    -0.338035751083E+03    0.43714E-07   -0.69123E-07  2104   0.289E-03
  40 F= -.33803575E+03 E0= -.33792255E+03  d E =-.141143E-02
quench:  g(F)=  0.000E+00 g(S)=  0.000E+00 dE (1.order)= 0.000E+00
 bond charge predicted
       N       E                     dE             d eps       ncg     rms          rms(c)
DAV:   1    -0.338037128375E+03   -0.13772E-02   -0.20555E-02  4000   0.185E-01    0.351E-02
DAV:   2    -0.338037188165E+03   -0.59790E-04   -0.44398E-04  4032   0.386E-02    0.616E-02
DAV:   3    -0.338037189034E+03   -0.86961E-06   -0.67516E-05  4232   0.363E-02    0.655E-02
DAV:   4    -0.338037173364E+03    0.15671E-04   -0.54379E-05  4224   0.322E-02    0.440E-02
DAV:   5    -0.338037174622E+03   -0.12582E-05   -0.35156E-05  4272   0.252E-02    0.431E-02
DAV:   6    -0.338037166727E+03    0.78946E-05   -0.26840E-05  4064   0.208E-02    0.267E-02
DAV:   7    -0.338037164265E+03    0.24616E-05   -0.13183E-05  3880   0.148E-02    0.182E-02
DAV:   8    -0.338037163341E+03    0.92478E-06   -0.57881E-06  3048   0.104E-02
  41 F= -.33803716E+03 E0= -.33792397E+03  d E =-.141226E-02
quench:  g(F)=  0.000E+00 g(S)=  0.000E+00 dE (1.order)= 0.000E+00
 bond charge predicted
       N       E                     dE             d eps       ncg     rms          rms(c)
DAV:   1    -0.338038534783E+03   -0.13705E-02   -0.21223E-02  4000   0.187E-01    0.360E-02
DAV:   2    -0.338038601180E+03   -0.66397E-04   -0.46088E-04  4000   0.406E-02    0.680E-02
DAV:   3    -0.338038596351E+03    0.48293E-05   -0.78251E-05  4184   0.379E-02    0.663E-02
DAV:   4    -0.338038582212E+03    0.14139E-04   -0.56975E-05  4152   0.331E-02    0.467E-02
DAV:   5    -0.338038580576E+03    0.16353E-05   -0.36097E-05  4160   0.260E-02    0.401E-02
DAV:   6    -0.338038573185E+03    0.73913E-05   -0.24579E-05  4008   0.210E-02    0.254E-02
DAV:   7    -0.338038572503E+03    0.68218E-06   -0.13919E-05  3808   0.148E-02    0.221E-02
DAV:   8    -0.338038571254E+03    0.12492E-05   -0.81761E-06  3168   0.121E-02    0.154E-02
DAV:   9    -0.338038569157E+03    0.20971E-05   -0.29391E-06  2424   0.767E-03    0.377E-03
DAV:  10    -0.338038569172E+03   -0.15309E-07   -0.62012E-07  2056   0.278E-03
  42 F= -.33803857E+03 E0= -.33792542E+03  d E =-.140583E-02
quench:  g(F)=  0.000E+00 g(S)=  0.000E+00 dE (1.order)= 0.000E+00
 bond charge predicted
       N       E                     dE             d eps       ncg     rms          rms(c)
DAV:   1    -0.338039938338E+03   -0.13692E-02   -0.21938E-02  4000   0.189E-01    0.357E-02
DAV:   2    -0.338040000346E+03   -0.62008E-04   -0.46540E-04  4032   0.388E-02    0.626E-02
DAV:   3    -0.338040003173E+03   -0.28268E-05   -0.72661E-05  4224   0.372E-02    0.681E-02
DAV:   4    -0.338039985300E+03    0.17873E-04   -0.57040E-05  4208   0.330E-02    0.444E-02
DAV:   5    -0.338039987183E+03   -0.18835E-05   -0.38061E-05  4264   0.257E-02    0.445E-02
DAV:   6    -0.338039978356E+03    0.88269E-05   -0.27785E-05  4072   0.213E-02    0.263E-02
DAV:   7    -0.338039976280E+03    0.20766E-05   -0.12815E-05  3872   0.148E-02    0.190E-02
DAV:   8    -0.338039975597E+03    0.68292E-06   -0.70684E-06  3080   0.111E-02
  43 F= -.33803998E+03 E0= -.33792684E+03  d E =-.140642E-02
quench:  g(F)=  0.000E+00 g(S)=  0.000E+00 dE (1.order)= 0.000E+00
 bond charge predicted
       N       E                     dE             d eps       ncg     rms          rms(c)
DAV:   1    -0.338041338732E+03   -0.13625E-02   -0.22602E-02  4000   0.191E-01    0.367E-02
DAV:   2    -0.338041411824E+03   -0.73092E-04   -0.48607E-04  4000   0.421E-02    0.735E-02
DAV:   3    -0.338041402654E+03    0.91694E-05   -0.86338E-05  4176   0.394E-02    0.673E-02
DAV:   4    -0.338041389229E+03    0.13425E-04   -0.59421E-05  4176   0.340E-02    0.491E-02
DAV:   5    -0.338041386939E+03    0.22899E-05   -0.40077E-05  4168   0.269E-02    0.425E-02
DAV:   6    -0.338041379267E+03    0.76720E-05   -0.26785E-05  4032   0.215E-02    0.264E-02
DAV:   7    -0.338041378097E+03    0.11704E-05   -0.14507E-05  3912   0.153E-02    0.219E-02
DAV:   8    -0.338041376979E+03    0.11182E-05   -0.88517E-06  3240   0.125E-02    0.159E-02
DAV:   9    -0.338041374861E+03    0.21174E-05   -0.32174E-06  2432   0.790E-03    0.486E-03
DAV:  10    -0.338041374827E+03    0.34590E-07   -0.76718E-07  2104   0.305E-03
  44 F= -.33804137E+03 E0= -.33792829E+03  d E =-.139923E-02
quench:  g(F)=  0.000E+00 g(S)=  0.000E+00 dE (1.order)= 0.000E+00
 bond charge predicted
       N       E                     dE             d eps       ncg     rms          rms(c)
DAV:   1    -0.338042735811E+03   -0.13609E-02   -0.23324E-02  4000   0.194E-01    0.364E-02
DAV:   2    -0.338042803275E+03   -0.67464E-04   -0.48865E-04  4032   0.403E-02    0.665E-02
DAV:   3    -0.338042803382E+03   -0.10699E-06   -0.77469E-05  4240   0.386E-02    0.695E-02
DAV:   4    -0.338042784692E+03    0.18690E-04   -0.59786E-05  4216   0.338E-02    0.452E-02
DAV:   5    -0.338042785512E+03   -0.82017E-06   -0.37355E-05  4264   0.258E-02    0.434E-02
DAV:   6    -0.338042777989E+03    0.75234E-05   -0.28354E-05  4080   0.215E-02    0.278E-02
DAV:   7    -0.338042775242E+03    0.27471E-05   -0.13886E-05  3976   0.154E-02    0.186E-02
DAV:   8    -0.338042774407E+03    0.83420E-06   -0.64524E-06  3120   0.109E-02
  45 F= -.33804277E+03 E0= -.33792971E+03  d E =-.139958E-02
quench:  g(F)=  0.000E+00 g(S)=  0.000E+00 dE (1.order)= 0.000E+00
 bond charge predicted
       N       E                     dE             d eps       ncg     rms          rms(c)
DAV:   1    -0.338044129140E+03   -0.13539E-02   -0.24000E-02  4000   0.196E-01    0.373E-02
DAV:   2    -0.338044205006E+03   -0.75866E-04   -0.50716E-04  4000   0.424E-02    0.744E-02
DAV:   3    -0.338044197989E+03    0.70170E-05   -0.91082E-05  4192   0.405E-02    0.708E-02
DAV:   4    -0.338044179524E+03    0.18465E-04   -0.61741E-05  4200   0.346E-02    0.464E-02
DAV:   5    -0.338044178467E+03    0.10569E-05   -0.37163E-05  4192   0.262E-02    0.406E-02
DAV:   6    -0.338044171183E+03    0.72840E-05   -0.26163E-05  4040   0.215E-02    0.264E-02
DAV:   7    -0.338044170636E+03    0.54696E-06   -0.15219E-05  3928   0.155E-02    0.233E-02
DAV:   8    -0.338044169167E+03    0.14692E-05   -0.91562E-06  3264   0.128E-02    0.161E-02
DAV:   9    -0.338044166932E+03    0.22353E-05   -0.32123E-06  2448   0.796E-03    0.428E-03
DAV:  10    -0.338044166943E+03   -0.11481E-07   -0.73262E-07  2056   0.299E-03
  46 F= -.33804417E+03 E0= -.33793115E+03  d E =-.139254E-02
quench:  g(F)=  0.000E+00 g(S)=  0.000E+00 dE (1.order)= 0.000E+00
 bond charge predicted
       N       E                     dE             d eps       ncg     rms          rms(c)
DAV:   1    -0.338045519571E+03   -0.13526E-02   -0.24731E-02  4000   0.198E-01    0.370E-02
DAV:   2    -0.338045590594E+03   -0.71022E-04   -0.51018E-04  4032   0.408E-02    0.688E-02
DAV:   3    -0.338045590208E+03    0.38585E-06   -0.82369E-05  4224   0.396E-02    0.710E-02
DAV:   4    -0.338045570564E+03    0.19644E-04   -0.62012E-05  4232   0.345E-02    0.460E-02
DAV:   5    -0.338045571271E+03   -0.70653E-06   -0.39254E-05  4272   0.262E-02    0.439E-02
DAV:   6    -0.338045563448E+03    0.78225E-05   -0.28886E-05  4080   0.219E-02    0.278E-02
DAV:   7    -0.338045560840E+03    0.26081E-05   -0.13760E-05  3976   0.154E-02    0.191E-02
DAV:   8    -0.338045560192E+03    0.64803E-06   -0.73235E-06  3176   0.114E-02
  47 F= -.33804556E+03 E0= -.33793256E+03  d E =-.139325E-02
quench:  g(F)=  0.000E+00 g(S)=  0.000E+00 dE (1.order)= 0.000E+00
 bond charge predicted
       N       E                     dE             d eps       ncg     rms          rms(c)
DAV:   1    -0.338046906774E+03   -0.13459E-02   -0.25412E-02  4000   0.200E-01    0.380E-02
DAV:   2    -0.338046989850E+03   -0.83076E-04   -0.53197E-04  4000   0.438E-02    0.800E-02
DAV:   3    -0.338046977053E+03    0.12797E-04   -0.98128E-05  4192   0.418E-02    0.708E-02
DAV:   4    -0.338046960107E+03    0.16946E-04   -0.63475E-05  4200   0.353E-02    0.487E-02
DAV:   5    -0.338046958520E+03    0.15871E-05   -0.40705E-05  4184   0.271E-02    0.428E-02
DAV:   6    -0.338046950948E+03    0.75717E-05   -0.28308E-05  4064   0.220E-02    0.276E-02
DAV:   7    -0.338046949807E+03    0.11407E-05   -0.15562E-05  4008   0.159E-02    0.228E-02
DAV:   8    -0.338046948489E+03    0.13182E-05   -0.95544E-06  3352   0.130E-02    0.163E-02
DAV:   9    -0.338046946259E+03    0.22301E-05   -0.33895E-06  2464   0.813E-03    0.497E-03
DAV:  10    -0.338046946235E+03    0.24076E-07   -0.82308E-07  2104   0.318E-03
  48 F= -.33804695E+03 E0= -.33793400E+03  d E =-.138604E-02
quench:  g(F)=  0.000E+00 g(S)=  0.000E+00 dE (1.order)= 0.000E+00
 bond charge predicted
       N       E                     dE             d eps       ncg     rms          rms(c)
DAV:   1    -0.338048290375E+03   -0.13441E-02   -0.26158E-02  4000   0.202E-01    0.376E-02
DAV:   2    -0.338048365806E+03   -0.75431E-04   -0.53211E-04  4032   0.417E-02    0.716E-02
DAV:   3    -0.338048363294E+03    0.25120E-05   -0.86362E-05  4232   0.404E-02    0.719E-02
DAV:   4    -0.338048343413E+03    0.19880E-04   -0.64034E-05  4208   0.351E-02    0.467E-02
DAV:   5    -0.338048343429E+03   -0.15767E-07   -0.39161E-05  4256   0.263E-02    0.436E-02
DAV:   6    -0.338048336118E+03    0.73109E-05   -0.29392E-05  4080   0.220E-02    0.285E-02
DAV:   7    -0.338048333333E+03    0.27856E-05   -0.14339E-05  3960   0.158E-02    0.192E-02
DAV:   8    -0.338048332559E+03    0.77406E-06   -0.71501E-06  3216   0.115E-02
  49 F= -.33804833E+03 E0= -.33793540E+03  d E =-.138632E-02
quench:  g(F)=  0.000E+00 g(S)=  0.000E+00 dE (1.order)= 0.000E+00
 bond charge predicted
       N       E                     dE             d eps       ncg     rms          rms(c)
DAV:   1    -0.338049670730E+03   -0.13374E-02   -0.26853E-02  4000   0.204E-01    0.385E-02
DAV:   2    -0.338049756536E+03   -0.85807E-04   -0.55243E-04  4008   0.439E-02    0.809E-02
DAV:   3    -0.338049744627E+03    0.11909E-04   -0.10167E-04  4184   0.425E-02    0.728E-02
DAV:   4    -0.338049724514E+03    0.20113E-04   -0.64964E-05  4216   0.357E-02    0.467E-02
DAV:   5    -0.338049723423E+03    0.10909E-05   -0.38153E-05  4200   0.265E-02    0.406E-02
DAV:   6    -0.338049716074E+03    0.73496E-05   -0.26888E-05  4048   0.219E-02    0.266E-02
DAV:   7    -0.338049716104E+03   -0.30326E-07   -0.15922E-05  4000   0.159E-02    0.247E-02
DAV:   8    -0.338049714179E+03    0.19252E-05   -0.98901E-06  3328   0.133E-02    0.163E-02
DAV:   9    -0.338049711904E+03    0.22748E-05   -0.32737E-06  2448   0.805E-03    0.432E-03
DAV:  10    -0.338049711929E+03   -0.24680E-07   -0.76444E-07  2064   0.308E-03
  50 F= -.33804971E+03 E0= -.33793684E+03  d E =-.137937E-02
quench:  g(F)=  0.000E+00 g(S)=  0.000E+00 dE (1.order)= 0.000E+00
 bond charge predicted
       N       E                     dE             d eps       ncg     rms          rms(c)
DAV:   1    -0.338051045919E+03   -0.13340E-02   -0.27616E-02  4000   0.206E-01    0.381E-02
DAV:   2    -0.338051124153E+03   -0.78234E-04   -0.55301E-04  4032   0.419E-02    0.730E-02
DAV:   3    -0.338051121422E+03    0.27312E-05   -0.89956E-05  4248   0.410E-02    0.728E-02
DAV:   4    -0.338051101159E+03    0.20263E-04   -0.65903E-05  4216   0.356E-02    0.475E-02
DAV:   5    -0.338051100853E+03    0.30565E-06   -0.40460E-05  4240   0.265E-02    0.438E-02
DAV:   6    -0.338051093342E+03    0.75112E-05   -0.29621E-05  4096   0.222E-02    0.286E-02
DAV:   7    -0.338051090854E+03    0.24874E-05   -0.14410E-05  3984   0.158E-02    0.199E-02
DAV:   8    -0.338051090155E+03    0.69915E-06   -0.82495E-06  3280   0.120E-02
  51 F= -.33805109E+03 E0= -.33793823E+03  d E =-.137823E-02
quench:  g(F)=  0.000E+00 g(S)=  0.000E+00 dE (1.order)= 0.000E+00
 bond charge predicted
       N       E                     dE             d eps       ncg     rms          rms(c)
DAV:   1    -0.338052417068E+03   -0.13262E-02   -0.28320E-02  4000   0.208E-01    0.391E-02
DAV:   2    -0.338052510467E+03   -0.93399E-04   -0.57776E-04  4008   0.453E-02    0.864E-02
DAV:   3    -0.338052491555E+03    0.18913E-04   -0.10816E-04  4176   0.436E-02    0.720E-02
DAV:   4    -0.338052474120E+03    0.17434E-04   -0.66301E-05  4232   0.362E-02    0.494E-02
DAV:   5    -0.338052472499E+03    0.16216E-05   -0.42328E-05  4216   0.274E-02    0.433E-02
DAV:   6    -0.338052464658E+03    0.78404E-05   -0.29367E-05  4080   0.224E-02    0.280E-02
DAV:   7    -0.338052463950E+03    0.70786E-06   -0.16409E-05  4040   0.164E-02    0.240E-02
DAV:   8    -0.338052462164E+03    0.17859E-05   -0.10156E-05  3424   0.134E-02    0.162E-02
DAV:   9    -0.338052459956E+03    0.22085E-05   -0.33936E-06  2488   0.817E-03    0.497E-03
DAV:  10    -0.338052459948E+03    0.79526E-08   -0.85343E-07  2088   0.326E-03
  52 F= -.33805246E+03 E0= -.33793966E+03  d E =-.136979E-02
quench:  g(F)=  0.000E+00 g(S)=  0.000E+00 dE (1.order)= 0.000E+00
 bond charge predicted
       N       E                     dE             d eps       ncg     rms          rms(c)
DAV:   1    -0.338053782497E+03   -0.13225E-02   -0.29101E-02  4000   0.210E-01    0.387E-02
DAV:   2    -0.338053865804E+03   -0.83307E-04   -0.57590E-04  4040   0.429E-02    0.762E-02
DAV:   3    -0.338053859565E+03    0.62390E-05   -0.93823E-05  4248   0.418E-02    0.730E-02
DAV:   4    -0.338053840097E+03    0.19468E-04   -0.67735E-05  4232   0.361E-02    0.487E-02
DAV:   5    -0.338053838912E+03    0.11851E-05   -0.40897E-05  4256   0.267E-02    0.438E-02
DAV:   6    -0.338053831748E+03    0.71641E-05   -0.30176E-05  4120   0.223E-02    0.291E-02
DAV:   7    -0.338053829118E+03    0.26299E-05   -0.14805E-05  4008   0.162E-02    0.199E-02
DAV:   8    -0.338053828293E+03    0.82458E-06   -0.79293E-06  3288   0.121E-02
  53 F= -.33805383E+03 E0= -.33794105E+03  d E =-.136835E-02
quench:  g(F)=  0.000E+00 g(S)=  0.000E+00 dE (1.order)= 0.000E+00
 bond charge predicted
       N       E                     dE             d eps       ncg     rms          rms(c)
DAV:   1    -0.338055142469E+03   -0.13134E-02   -0.29823E-02  4000   0.212E-01    0.395E-02
DAV:   2    -0.338055238622E+03   -0.96153E-04   -0.59856E-04  4008   0.455E-02    0.872E-02
DAV:   3    -0.338055219745E+03    0.18877E-04   -0.11092E-04  4192   0.442E-02    0.731E-02
DAV:   4    -0.338055200351E+03    0.19394E-04   -0.67397E-05  4264   0.365E-02    0.478E-02
DAV:   5    -0.338055198610E+03    0.17413E-05   -0.39530E-05  4232   0.268E-02    0.407E-02
DAV:   6    -0.338055191166E+03    0.74439E-05   -0.27568E-05  4088   0.221E-02    0.266E-02
DAV:   7    -0.338055191867E+03   -0.70139E-06   -0.16652E-05  4048   0.164E-02    0.261E-02
DAV:   8    -0.338055189337E+03    0.25300E-05   -0.10568E-05  3392   0.138E-02    0.163E-02
DAV:   9    -0.338055187095E+03    0.22427E-05   -0.32794E-06  2456   0.806E-03    0.440E-03
DAV:  10    -0.338055187127E+03   -0.32407E-07   -0.79368E-07  2064   0.317E-03
  54 F= -.33805519E+03 E0= -.33794247E+03  d E =-.135883E-02
quench:  g(F)=  0.000E+00 g(S)=  0.000E+00 dE (1.order)= 0.000E+00
 bond charge predicted
       N       E                     dE             d eps       ncg     rms          rms(c)
DAV:   1    -0.338056492942E+03   -0.13058E-02   -0.30622E-02  4000   0.214E-01    0.392E-02
DAV:   2    -0.338056578257E+03   -0.85315E-04   -0.59623E-04  4032   0.429E-02    0.768E-02
DAV:   3    -0.338056572431E+03    0.58265E-05   -0.96197E-05  4240   0.422E-02    0.737E-02
DAV:   4    -0.338056552869E+03    0.19561E-04   -0.69476E-05  4224   0.366E-02    0.495E-02
DAV:   5    -0.338056551097E+03    0.17720E-05   -0.41628E-05  4248   0.270E-02    0.436E-02
DAV:   6    -0.338056543892E+03    0.72053E-05   -0.30102E-05  4096   0.224E-02    0.290E-02
DAV:   7    -0.338056541669E+03    0.22234E-05   -0.15036E-05  4016   0.162E-02    0.209E-02
DAV:   8    -0.338056540741E+03    0.92781E-06   -0.90033E-06  3320   0.126E-02
  55 F= -.33805654E+03 E0= -.33794384E+03  d E =-.135361E-02
quench:  g(F)=  0.000E+00 g(S)=  0.000E+00 dE (1.order)= 0.000E+00
 bond charge predicted
       N       E                     dE             d eps       ncg     rms          rms(c)
DAV:   1    -0.338057836040E+03   -0.12944E-02   -0.31354E-02  4000   0.216E-01    0.401E-02
DAV:   2    -0.338057939540E+03   -0.10350E-03   -0.62394E-04  4008   0.467E-02    0.922E-02
DAV:   3    -0.338057913840E+03    0.25700E-04   -0.11698E-04  4184   0.452E-02    0.723E-02
DAV:   4    -0.338057897244E+03    0.16596E-04   -0.68431E-05  4248   0.370E-02    0.505E-02
DAV:   5    -0.338057895117E+03    0.21272E-05   -0.43743E-05  4240   0.278E-02    0.438E-02
DAV:   6    -0.338057887037E+03    0.80800E-05   -0.30128E-05  4112   0.227E-02    0.283E-02
DAV:   7    -0.338057886970E+03    0.66815E-07   -0.17296E-05  4088   0.168E-02    0.254E-02
DAV:   8    -0.338057884531E+03    0.24393E-05   -0.10710E-05  3480   0.138E-02    0.159E-02
DAV:   9    -0.338057882409E+03    0.21219E-05   -0.33388E-06  2512   0.812E-03    0.494E-03
DAV:  10    -0.338057882418E+03   -0.91532E-08   -0.87270E-07  2112   0.333E-03
  56 F= -.33805788E+03 E0= -.33794524E+03  d E =-.134168E-02
quench:  g(F)=  0.000E+00 g(S)=  0.000E+00 dE (1.order)= 0.000E+00
 bond charge predicted
       N       E                     dE             d eps       ncg     rms          rms(c)
DAV:   1    -0.338059163674E+03   -0.12813E-02   -0.32159E-02  4000   0.218E-01    0.397E-02
DAV:   2    -0.338059254273E+03   -0.90599E-04   -0.61906E-04  4032   0.439E-02    0.801E-02
DAV:   3    -0.338059244341E+03    0.99319E-05   -0.10007E-04  4248   0.430E-02    0.736E-02
DAV:   4    -0.338059226115E+03    0.18226E-04   -0.71146E-05  4240   0.371E-02    0.510E-02
DAV:   5    -0.338059223469E+03    0.26463E-05   -0.42771E-05  4256   0.273E-02    0.440E-02
DAV:   6    -0.338059216293E+03    0.71758E-05   -0.30668E-05  4112   0.226E-02    0.293E-02
DAV:   7    -0.338059214035E+03    0.22581E-05   -0.15182E-05  4024   0.166E-02    0.208E-02
DAV:   8    -0.338059212986E+03    0.10491E-05   -0.86161E-06  3352   0.126E-02    0.158E-02
DAV:   9    -0.338059210888E+03    0.20980E-05   -0.33300E-06  2440   0.784E-03    0.460E-03
DAV:  10    -0.338059210942E+03   -0.54330E-07   -0.78566E-07  2072   0.329E-03
  57 F= -.33805921E+03 E0= -.33794661E+03  d E =-.132852E-02
quench:  g(F)=  0.000E+00 g(S)=  0.000E+00 dE (1.order)= 0.000E+00
 bond charge predicted
       N       E                     dE             d eps       ncg     rms          rms(c)
DAV:   1    -0.338060459822E+03   -0.12489E-02   -0.32898E-02  4000   0.219E-01    0.397E-02
DAV:   2    -0.338060544934E+03   -0.85111E-04   -0.61848E-04  4048   0.417E-02    0.749E-02
DAV:   3    -0.338060542053E+03    0.28810E-05   -0.94899E-05  4272   0.419E-02    0.741E-02
DAV:   4    -0.338060523314E+03    0.18738E-04   -0.70773E-05  4264   0.372E-02    0.507E-02
DAV:   5    -0.338060519797E+03    0.35171E-05   -0.40091E-05  4280   0.272E-02    0.427E-02
DAV:   6    -0.338060513035E+03    0.67615E-05   -0.29621E-05  4136   0.222E-02    0.288E-02
DAV:   7    -0.338060511448E+03    0.15872E-05   -0.15526E-05  4024   0.165E-02    0.219E-02
DAV:   8    -0.338060509866E+03    0.15819E-05   -0.87193E-06  3352   0.128E-02    0.154E-02
DAV:   9    -0.338060507916E+03    0.19505E-05   -0.32041E-06  2440   0.763E-03    0.470E-03
DAV:  10    -0.338060507966E+03   -0.49797E-07   -0.83018E-07  2120   0.332E-03
  58 F= -.33806051E+03 E0= -.33794795E+03  d E =-.129702E-02
quench:  g(F)=  0.000E+00 g(S)=  0.000E+00 dE (1.order)= 0.000E+00
 bond charge predicted
       N       E                     dE             d eps       ncg     rms          rms(c)
DAV:   1    -0.338061666633E+03   -0.11587E-02   -0.33481E-02  4000   0.219E-01    0.397E-02
DAV:   2    -0.338061751844E+03   -0.85211E-04   -0.61808E-04  4048   0.417E-02    0.751E-02
DAV:   3    -0.338061748410E+03    0.34334E-05   -0.95351E-05  4280   0.421E-02    0.739E-02
DAV:   4    -0.338061729915E+03    0.18496E-04   -0.71050E-05  4264   0.371E-02    0.509E-02
DAV:   5    -0.338061726410E+03    0.35046E-05   -0.42062E-05  4256   0.271E-02    0.429E-02
DAV:   6    -0.338061719796E+03    0.66136E-05   -0.29809E-05  4104   0.222E-02    0.290E-02
DAV:   7    -0.338061717966E+03    0.18306E-05   -0.15343E-05  4008   0.165E-02    0.214E-02
DAV:   8    -0.338061716369E+03    0.15967E-05   -0.87372E-06  3328   0.126E-02    0.149E-02
DAV:   9    -0.338061714566E+03    0.18027E-05   -0.31348E-06  2432   0.742E-03    0.467E-03
DAV:  10    -0.338061714624E+03   -0.57385E-07   -0.75817E-07  2072   0.331E-03
  59 F= -.33806171E+03 E0= -.33794920E+03  d E =-.120666E-02
quench:  g(F)=  0.000E+00 g(S)=  0.000E+00 dE (1.order)= 0.000E+00
 bond charge predicted
       N       E                     dE             d eps       ncg     rms          rms(c)
DAV:   1    -0.338062787186E+03   -0.10726E-02   -0.34087E-02  4000   0.219E-01    0.396E-02
DAV:   2    -0.338062872747E+03   -0.85561E-04   -0.61835E-04  4048   0.415E-02    0.759E-02
DAV:   3    -0.338062866858E+03    0.58892E-05   -0.94979E-05  4280   0.416E-02    0.721E-02
DAV:   4    -0.338062852596E+03    0.14262E-04   -0.70665E-05  4288   0.372E-02    0.541E-02
DAV:   5    -0.338062847490E+03    0.51063E-05   -0.44925E-05  4296   0.281E-02    0.445E-02
DAV:   6    -0.338062839934E+03    0.75562E-05   -0.30441E-05  4168   0.225E-02    0.282E-02
DAV:   7    -0.338062838431E+03    0.15023E-05   -0.14842E-05  4040   0.165E-02    0.213E-02
DAV:   8    -0.338062836953E+03    0.14787E-05   -0.86536E-06  3312   0.127E-02    0.155E-02
DAV:   9    -0.338062835059E+03    0.18940E-05   -0.32586E-06  2448   0.760E-03    0.515E-03
DAV:  10    -0.338062835069E+03   -0.10506E-07   -0.87482E-07  2104   0.343E-03
  60 F= -.33806284E+03 E0= -.33795036E+03  d E =-.112045E-02
quench:  g(F)=  0.000E+00 g(S)=  0.000E+00 dE (1.order)= 0.000E+00
 bond charge predicted
       N       E                     dE             d eps       ncg     rms          rms(c)
DAV:   1    -0.338063827667E+03   -0.99261E-03   -0.34718E-02  4000   0.219E-01    0.396E-02
DAV:   2    -0.338063910435E+03   -0.82768E-04   -0.61508E-04  4048   0.406E-02    0.731E-02
DAV:   3    -0.338063908641E+03    0.17939E-05   -0.92539E-05  4280   0.415E-02    0.734E-02
DAV:   4    -0.338063891636E+03    0.17005E-04   -0.71048E-05  4272   0.370E-02    0.522E-02
DAV:   5    -0.338063886845E+03    0.47909E-05   -0.42317E-05  4288   0.272E-02    0.426E-02
DAV:   6    -0.338063880573E+03    0.62725E-05   -0.29476E-05  4136   0.221E-02    0.286E-02
DAV:   7    -0.338063878859E+03    0.17136E-05   -0.15095E-05  4032   0.167E-02    0.209E-02
DAV:   8    -0.338063876875E+03    0.19839E-05   -0.77040E-06  3280   0.122E-02    0.130E-02
DAV:   9    -0.338063875502E+03    0.13737E-05   -0.26050E-06  2376   0.679E-03    0.454E-03
DAV:  10    -0.338063875559E+03   -0.57182E-07   -0.73072E-07  2104   0.324E-03
  61 F= -.33806388E+03 E0= -.33795144E+03  d E =-.104049E-02
quench:  g(F)=  0.000E+00 g(S)=  0.000E+00 dE (1.order)= 0.000E+00
 bond charge predicted
       N       E                     dE             d eps       ncg     rms          rms(c)
DAV:   1    -0.338064796273E+03   -0.92077E-03   -0.35388E-02  4000   0.219E-01    0.395E-02
DAV:   2    -0.338064876400E+03   -0.80127E-04   -0.61410E-04  4048   0.394E-02    0.706E-02
DAV:   3    -0.338064877961E+03   -0.15610E-05   -0.90929E-05  4288   0.409E-02    0.740E-02
DAV:   4    -0.338064860026E+03    0.17935E-04   -0.70010E-05  4288   0.371E-02    0.514E-02
DAV:   5    -0.338064854704E+03    0.53216E-05   -0.38672E-05  4264   0.268E-02    0.409E-02
DAV:   6    -0.338064849112E+03    0.55927E-05   -0.28819E-05  4136   0.217E-02    0.284E-02
DAV:   7    -0.338064848103E+03    0.10089E-05   -0.15716E-05  4016   0.167E-02    0.226E-02
DAV:   8    -0.338064845832E+03    0.22703E-05   -0.84972E-06  3312   0.128E-02    0.141E-02
DAV:   9    -0.338064844227E+03    0.16055E-05   -0.28268E-06  2424   0.714E-03    0.463E-03
DAV:  10    -0.338064844282E+03   -0.55225E-07   -0.80296E-07  2120   0.331E-03
  62 F= -.33806484E+03 E0= -.33795245E+03  d E =-.968723E-03
quench:  g(F)=  0.000E+00 g(S)=  0.000E+00 dE (1.order)= 0.000E+00
 bond charge predicted
       N       E                     dE             d eps       ncg     rms          rms(c)
DAV:   1    -0.338065701889E+03   -0.85766E-03   -0.36087E-02  4000   0.220E-01    0.396E-02
DAV:   2    -0.338065783304E+03   -0.81415E-04   -0.61771E-04  4048   0.397E-02    0.718E-02
DAV:   3    -0.338065783327E+03   -0.23305E-07   -0.92289E-05  4288   0.414E-02    0.738E-02
DAV:   4    -0.338065765955E+03    0.17372E-04   -0.70911E-05  4296   0.370E-02    0.521E-02
DAV:   5    -0.338065760339E+03    0.56159E-05   -0.40870E-05  4296   0.268E-02    0.409E-02
DAV:   6    -0.338065754999E+03    0.53401E-05   -0.28884E-05  4120   0.219E-02    0.287E-02
DAV:   7    -0.338065753693E+03    0.13063E-05   -0.15697E-05  4032   0.168E-02    0.220E-02
DAV:   8    -0.338065751450E+03    0.22431E-05   -0.86745E-06  3304   0.127E-02    0.137E-02
DAV:   9    -0.338065749941E+03    0.15084E-05   -0.28277E-06  2408   0.699E-03    0.461E-03
DAV:  10    -0.338065750003E+03   -0.61518E-07   -0.73726E-07  2104   0.331E-03
  63 F= -.33806575E+03 E0= -.33795339E+03  d E =-.905721E-03
quench:  g(F)=  0.000E+00 g(S)=  0.000E+00 dE (1.order)= 0.000E+00
 bond charge predicted
       N       E                     dE             d eps       ncg     rms          rms(c)
DAV:   1    -0.338066554569E+03   -0.80463E-03   -0.36835E-02  4000   0.221E-01    0.397E-02
DAV:   2    -0.338066637645E+03   -0.83076E-04   -0.62408E-04  4048   0.399E-02    0.735E-02
DAV:   3    -0.338066634383E+03    0.32623E-05   -0.93217E-05  4312   0.411E-02    0.721E-02
DAV:   4    -0.338066621634E+03    0.12749E-04   -0.71242E-05  4320   0.374E-02    0.558E-02
DAV:   5    -0.338066614306E+03    0.73282E-05   -0.44770E-05  4304   0.281E-02    0.431E-02
DAV:   6    -0.338066607553E+03    0.67524E-05   -0.29849E-05  4224   0.222E-02    0.277E-02
DAV:   7    -0.338066606722E+03    0.83152E-06   -0.15159E-05  4032   0.168E-02    0.220E-02
DAV:   8    -0.338066604579E+03    0.21427E-05   -0.87009E-06  3312   0.129E-02    0.145E-02
DAV:   9    -0.338066602954E+03    0.16252E-05   -0.29787E-06  2400   0.723E-03    0.506E-03
DAV:  10    -0.338066602973E+03   -0.18961E-07   -0.85727E-07  2088   0.343E-03
  64 F= -.33806660E+03 E0= -.33795429E+03  d E =-.852970E-03
quench:  g(F)=  0.000E+00 g(S)=  0.000E+00 dE (1.order)= 0.000E+00
 bond charge predicted
       N       E                     dE             d eps       ncg     rms          rms(c)
DAV:   1    -0.338067366446E+03   -0.76349E-03   -0.37617E-02  4000   0.222E-01    0.399E-02
DAV:   2    -0.338067448590E+03   -0.82144E-04   -0.62724E-04  4048   0.396E-02    0.720E-02
DAV:   3    -0.338067448097E+03    0.49226E-06   -0.92425E-05  4296   0.414E-02    0.735E-02
DAV:   4    -0.338067432545E+03    0.15553E-04   -0.72286E-05  4328   0.373E-02    0.540E-02
DAV:   5    -0.338067425565E+03    0.69792E-05   -0.42551E-05  4304   0.272E-02    0.414E-02
DAV:   6    -0.338067420140E+03    0.54250E-05   -0.29057E-05  4160   0.219E-02    0.284E-02
DAV:   7    -0.338067418921E+03    0.12192E-05   -0.15395E-05  4048   0.169E-02    0.216E-02
DAV:   8    -0.338067416428E+03    0.24931E-05   -0.78991E-06  3312   0.125E-02    0.123E-02
DAV:   9    -0.338067415220E+03    0.12083E-05   -0.24569E-06  2376   0.656E-03    0.457E-03
DAV:  10    -0.338067415276E+03   -0.56010E-07   -0.73065E-07  2104   0.328E-03
  65 F= -.33806742E+03 E0= -.33795514E+03  d E =-.812303E-03
quench:  g(F)=  0.000E+00 g(S)=  0.000E+00 dE (1.order)= 0.000E+00
 bond charge predicted
       N       E                     dE             d eps       ncg     rms          rms(c)
DAV:   1    -0.338068148125E+03   -0.73291E-03   -0.38459E-02  4000   0.224E-01    0.400E-02
DAV:   2    -0.338068229028E+03   -0.80903E-04   -0.63449E-04  4032   0.388E-02    0.703E-02
DAV:   3    -0.338068231520E+03   -0.24923E-05   -0.92255E-05  4304   0.411E-02    0.745E-02
DAV:   4    -0.338068214840E+03    0.16680E-04   -0.71939E-05  4336   0.376E-02    0.536E-02
DAV:   5    -0.338068207242E+03    0.75981E-05   -0.39211E-05  4304   0.270E-02    0.399E-02
DAV:   6    -0.338068202474E+03    0.47681E-05   -0.28902E-05  4184   0.216E-02    0.285E-02
DAV:   7    -0.338068201961E+03    0.51264E-06   -0.16228E-05  4064   0.170E-02    0.235E-02
DAV:   8    -0.338068199075E+03    0.28868E-05   -0.88086E-06  3328   0.131E-02    0.134E-02
DAV:   9    -0.338068197647E+03    0.14274E-05   -0.26967E-06  2408   0.693E-03    0.471E-03
DAV:  10    -0.338068197697E+03   -0.49869E-07   -0.81410E-07  2088   0.336E-03
  66 F= -.33806820E+03 E0= -.33795597E+03  d E =-.782421E-03
quench:  g(F)=  0.000E+00 g(S)=  0.000E+00 dE (1.order)= 0.000E+00
 bond charge predicted
       N       E                     dE             d eps       ncg     rms          rms(c)
DAV:   1    -0.338068913679E+03   -0.71603E-03   -0.39332E-02  4000   0.226E-01    0.403E-02
DAV:   2    -0.338068998211E+03   -0.84531E-04   -0.64611E-04  4048   0.398E-02    0.732E-02
DAV:   3    -0.338068997374E+03    0.83666E-06   -0.95534E-05  4288   0.420E-02    0.743E-02
DAV:   4    -0.338068981230E+03    0.16144E-04   -0.73403E-05  4360   0.376E-02    0.542E-02
DAV:   5    -0.338068973631E+03    0.75987E-05   -0.41947E-05  4312   0.271E-02    0.403E-02
DAV:   6    -0.338068968860E+03    0.47716E-05   -0.28994E-05  4152   0.219E-02    0.289E-02
DAV:   7    -0.338068968042E+03    0.81722E-06   -0.16273E-05  4048   0.172E-02    0.229E-02
DAV:   8    -0.338068965229E+03    0.28135E-05   -0.90485E-06  3336   0.130E-02    0.132E-02
DAV:   9    -0.338068963871E+03    0.13581E-05   -0.27217E-06  2408   0.685E-03    0.472E-03
DAV:  10    -0.338068963927E+03   -0.55850E-07   -0.75210E-07  2104   0.338E-03
  67 F= -.33806896E+03 E0= -.33795677E+03  d E =-.766230E-03
quench:  g(F)=  0.000E+00 g(S)=  0.000E+00 dE (1.order)= 0.000E+00
 bond charge predicted
       N       E                     dE             d eps       ncg     rms          rms(c)
DAV:   1    -0.338069676947E+03   -0.71308E-03   -0.40275E-02  4000   0.229E-01    0.407E-02
DAV:   2    -0.338069764523E+03   -0.87576E-04   -0.66317E-04  4032   0.404E-02    0.754E-02
DAV:   3    -0.338069760605E+03    0.39177E-05   -0.97891E-05  4296   0.420E-02    0.733E-02
DAV:   4    -0.338069748669E+03    0.11936E-04   -0.74819E-05  4352   0.384E-02    0.582E-02
DAV:   5    -0.338069739427E+03    0.92419E-05   -0.46258E-05  4328   0.286E-02    0.431E-02
DAV:   6    -0.338069732769E+03    0.66588E-05   -0.30192E-05  4224   0.223E-02    0.277E-02
DAV:   7    -0.338069732681E+03    0.87406E-07   -0.15864E-05  4048   0.172E-02    0.233E-02
DAV:   8    -0.338069729848E+03    0.28332E-05   -0.92721E-06  3360   0.133E-02    0.140E-02
DAV:   9    -0.338069728355E+03    0.14925E-05   -0.29139E-06  2408   0.714E-03    0.514E-03
DAV:  10    -0.338069728371E+03   -0.16051E-07   -0.87652E-07  2080   0.349E-03
  68 F= -.33806973E+03 E0= -.33795758E+03  d E =-.764445E-03
quench:  g(F)=  0.000E+00 g(S)=  0.000E+00 dE (1.order)= 0.000E+00
 bond charge predicted
       N       E                     dE             d eps       ncg     rms          rms(c)
DAV:   1    -0.338070452888E+03   -0.72453E-03   -0.41234E-02  4000   0.232E-01    0.411E-02
DAV:   2    -0.338070542731E+03   -0.89843E-04   -0.67562E-04  4048   0.410E-02    0.763E-02
DAV:   3    -0.338070538983E+03    0.37476E-05   -0.99902E-05  4288   0.429E-02    0.747E-02
DAV:   4    -0.338070524157E+03    0.14826E-04   -0.76367E-05  4376   0.383E-02    0.563E-02
DAV:   5    -0.338070515581E+03    0.85757E-05   -0.44587E-05  4304   0.278E-02    0.416E-02
DAV:   6    -0.338070510126E+03    0.54551E-05   -0.29627E-05  4184   0.221E-02    0.286E-02
DAV:   7    -0.338070509520E+03    0.60625E-06   -0.16100E-05  4048   0.173E-02    0.227E-02
DAV:   8    -0.338070506519E+03    0.30011E-05   -0.86625E-06  3344   0.130E-02    0.124E-02
DAV:   9    -0.338070505315E+03    0.12032E-05   -0.25503E-06  2376   0.669E-03    0.476E-03
DAV:  10    -0.338070505362E+03   -0.47090E-07   -0.77445E-07  2104   0.341E-03
  69 F= -.33807051E+03 E0= -.33795840E+03  d E =-.776991E-03
quench:  g(F)=  0.000E+00 g(S)=  0.000E+00 dE (1.order)= 0.000E+00
 bond charge predicted
       N       E                     dE             d eps       ncg     rms          rms(c)
DAV:   1    -0.338071256657E+03   -0.75134E-03   -0.42273E-02  4000   0.235E-01    0.414E-02
DAV:   2    -0.338071346435E+03   -0.89777E-04   -0.69601E-04  4032   0.405E-02    0.746E-02
DAV:   3    -0.338071346575E+03   -0.13984E-06   -0.10095E-04  4312   0.428E-02    0.764E-02
DAV:   4    -0.338071330288E+03    0.16286E-04   -0.77481E-05  4368   0.390E-02    0.565E-02
DAV:   5    -0.338071320585E+03    0.97027E-05   -0.41668E-05  4312   0.279E-02    0.403E-02
DAV:   6    -0.338071315695E+03    0.48907E-05   -0.29712E-05  4200   0.219E-02    0.287E-02
DAV:   7    -0.338071315948E+03   -0.25296E-06   -0.17129E-05  4072   0.175E-02    0.250E-02
DAV:   8    -0.338071312362E+03    0.35861E-05   -0.96949E-06  3400   0.136E-02    0.134E-02
DAV:   9    -0.338071310976E+03    0.13859E-05   -0.27679E-06  2416   0.699E-03    0.492E-03
DAV:  10    -0.338071311010E+03   -0.34481E-07   -0.85891E-07  2088   0.345E-03
  70 F= -.33807131E+03 E0= -.33795925E+03  d E =-.805648E-03
quench:  g(F)=  0.000E+00 g(S)=  0.000E+00 dE (1.order)= 0.000E+00
 bond charge predicted
       N       E                     dE             d eps       ncg     rms          rms(c)
DAV:   1    -0.338072104520E+03   -0.79354E-03   -0.43270E-02  4000   0.239E-01    0.420E-02
DAV:   2    -0.338072202049E+03   -0.97529E-04   -0.71592E-04  4048   0.426E-02    0.805E-02
DAV:   3    -0.338072195132E+03    0.69170E-05   -0.10792E-04  4272   0.445E-02    0.763E-02
DAV:   4    -0.338072178890E+03    0.16242E-04   -0.79092E-05  4368   0.390E-02    0.564E-02
DAV:   5    -0.338072170086E+03    0.88040E-05   -0.44829E-05  4312   0.279E-02    0.413E-02
DAV:   6    -0.338072164912E+03    0.51744E-05   -0.30119E-05  4176   0.223E-02    0.293E-02
DAV:   7    -0.338072164721E+03    0.19059E-06   -0.17390E-05  4080   0.177E-02    0.244E-02
DAV:   8    -0.338072161357E+03    0.33645E-05   -0.10096E-05  3456   0.137E-02    0.135E-02
DAV:   9    -0.338072159963E+03    0.13933E-05   -0.28893E-06  2416   0.710E-03    0.500E-03
DAV:  10    -0.338072160008E+03   -0.44449E-07   -0.82521E-07  2120   0.356E-03
  71 F= -.33807216E+03 E0= -.33796015E+03  d E =-.848998E-03
quench:  g(F)=  0.000E+00 g(S)=  0.000E+00 dE (1.order)= 0.000E+00
 bond charge predicted
       N       E                     dE             d eps       ncg     rms          rms(c)
DAV:   1    -0.338073010215E+03   -0.85025E-03   -0.44317E-02  4000   0.244E-01    0.425E-02
DAV:   2    -0.338073110909E+03   -0.10069E-03   -0.74783E-04  4032   0.431E-02    0.815E-02
DAV:   3    -0.338073103647E+03    0.72618E-05   -0.11081E-04  4304   0.446E-02    0.766E-02
DAV:   4    -0.338073091100E+03    0.12547E-04   -0.82811E-05  4360   0.404E-02    0.613E-02
DAV:   5    -0.338073079962E+03    0.11138E-04   -0.49820E-05  4336   0.297E-02    0.445E-02
DAV:   6    -0.338073072421E+03    0.75405E-05   -0.31470E-05  4224   0.227E-02    0.279E-02
DAV:   7    -0.338073073319E+03   -0.89801E-06   -0.17176E-05  4088   0.178E-02    0.253E-02
DAV:   8    -0.338073069718E+03    0.36012E-05   -0.10526E-05  3488   0.141E-02    0.142E-02
DAV:   9    -0.338073068192E+03    0.15260E-05   -0.30861E-06  2440   0.734E-03    0.533E-03
DAV:  10    -0.338073068197E+03   -0.45402E-08   -0.93308E-07  2088   0.358E-03
  72 F= -.33807307E+03 E0= -.33796111E+03  d E =-.908189E-03
quench:  g(F)=  0.000E+00 g(S)=  0.000E+00 dE (1.order)= 0.000E+00
 bond charge predicted
       N       E                     dE             d eps       ncg     rms          rms(c)
DAV:   1    -0.338073986436E+03   -0.91824E-03   -0.45120E-02  4000   0.247E-01    0.431E-02
DAV:   2    -0.338074095070E+03   -0.10863E-03   -0.76255E-04  4048   0.453E-02    0.872E-02
DAV:   3    -0.338074081244E+03    0.13826E-04   -0.11829E-04  4256   0.466E-02    0.774E-02
DAV:   4    -0.338074065308E+03    0.15936E-04   -0.83484E-05  4376   0.401E-02    0.583E-02
DAV:   5    -0.338074056460E+03    0.88477E-05   -0.48783E-05  4320   0.289E-02    0.437E-02
DAV:   6    -0.338074049821E+03    0.66398E-05   -0.31477E-05  4192   0.228E-02    0.291E-02
DAV:   7    -0.338074049816E+03    0.43001E-08   -0.17377E-05  4096   0.180E-02    0.243E-02
DAV:   8    -0.338074046430E+03    0.33859E-05   -0.10062E-05  3480   0.139E-02    0.135E-02
DAV:   9    -0.338074045021E+03    0.14097E-05   -0.29729E-06  2424   0.730E-03    0.516E-03
DAV:  10    -0.338074045054E+03   -0.33615E-07   -0.90378E-07  2112   0.370E-03
  73 F= -.33807405E+03 E0= -.33796213E+03  d E =-.976857E-03
quench:  g(F)=  0.000E+00 g(S)=  0.000E+00 dE (1.order)= 0.000E+00
 bond charge predicted
       N       E                     dE             d eps       ncg     rms          rms(c)
DAV:   1    -0.338075040204E+03   -0.99518E-03   -0.45762E-02  4000   0.251E-01    0.434E-02
DAV:   2    -0.338075144111E+03   -0.10391E-03   -0.79206E-04  4032   0.436E-02    0.809E-02
DAV:   3    -0.338075141982E+03    0.21295E-05   -0.11594E-04  4312   0.458E-02    0.806E-02
DAV:   4    -0.338075124405E+03    0.17577E-04   -0.87977E-05  4368   0.417E-02    0.604E-02
DAV:   5    -0.338075112245E+03    0.12160E-04   -0.46125E-05  4336   0.293E-02    0.422E-02
DAV:   6    -0.338075106134E+03    0.61111E-05   -0.30937E-05  4200   0.223E-02    0.286E-02
DAV:   7    -0.338075107452E+03   -0.13180E-05   -0.18311E-05  4104   0.181E-02    0.270E-02
DAV:   8    -0.338075103111E+03    0.43411E-05   -0.10992E-05  3536   0.144E-02    0.139E-02
DAV:   9    -0.338075101639E+03    0.14720E-05   -0.29791E-06  2432   0.723E-03    0.514E-03
DAV:  10    -0.338075101659E+03   -0.19696E-07   -0.91426E-07  2120   0.352E-03
  74 F= -.33807510E+03 E0= -.33796324E+03  d E =-.105660E-02
quench:  g(F)=  0.000E+00 g(S)=  0.000E+00 dE (1.order)= 0.000E+00
 bond charge predicted
       N       E                     dE             d eps       ncg     rms          rms(c)
DAV:   1    -0.338076174413E+03   -0.10728E-02   -0.45507E-02  4000   0.252E-01    0.441E-02
DAV:   2    -0.338076292107E+03   -0.11769E-03   -0.79123E-04  4048   0.476E-02    0.933E-02
DAV:   3    -0.338076272050E+03    0.20057E-04   -0.12942E-04  4232   0.487E-02    0.791E-02
DAV:   4    -0.338076253680E+03    0.18370E-04   -0.85825E-05  4376   0.406E-02    0.575E-02
DAV:   5    -0.338076245645E+03    0.80349E-05   -0.49400E-05  4312   0.290E-02    0.439E-02
DAV:   6    -0.338076238940E+03    0.67050E-05   -0.32592E-05  4184   0.232E-02    0.300E-02
DAV:   7    -0.338076238938E+03    0.23283E-08   -0.18674E-05  4144   0.183E-02    0.254E-02
DAV:   8    -0.338076235505E+03    0.34328E-05   -0.11387E-05  3592   0.144E-02    0.148E-02
DAV:   9    -0.338076233825E+03    0.16804E-05   -0.34365E-06  2432   0.787E-03    0.552E-03
DAV:  10    -0.338076233864E+03   -0.39108E-07   -0.10114E-06  2136   0.398E-03
  75 F= -.33807623E+03 E0= -.33796442E+03  d E =-.113220E-02
quench:  g(F)=  0.000E+00 g(S)=  0.000E+00 dE (1.order)= 0.000E+00
 bond charge predicted
       N       E                     dE             d eps       ncg     rms          rms(c)
DAV:   1    -0.338077373793E+03   -0.11400E-02   -0.44352E-02  4000   0.251E-01    0.439E-02
DAV:   2    -0.338077480262E+03   -0.10647E-03   -0.80197E-04  4032   0.448E-02    0.837E-02
[...]
DAV:   3    -0.338356208049E+03    0.25696E-06   -0.26325E-07  2040   0.251E-03    0.105E-03
DAV:   4    -0.338356208074E+03   -0.25480E-07   -0.53581E-08  2056   0.897E-04    0.195E-03
DAV:   5    -0.338356208085E+03   -0.11460E-07   -0.58730E-08  2056   0.112E-03
 683 F= -.33835621E+03 E0= -.33825178E+03  d E =0.166839E-04
quench:  g(F)=  0.000E+00 g(S)=  0.000E+00 dE (1.order)= 0.000E+00
 bond charge predicted
       N       E                     dE             d eps       ncg     rms          rms(c)
DAV:   1    -0.338356190608E+03    0.17466E-04   -0.25911E-05  3656   0.451E-03    0.136E-03
DAV:   2    -0.338356190906E+03   -0.29730E-06   -0.62663E-07  2192   0.270E-03    0.650E-03
DAV:   3    -0.338356190671E+03    0.23422E-06   -0.36779E-07  2064   0.260E-03    0.297E-03
DAV:   4    -0.338356190624E+03    0.46981E-07   -0.82497E-08  2040   0.132E-03    0.144E-03
DAV:   5    -0.338356190617E+03    0.70650E-08   -0.33023E-08  2040   0.765E-04
 684 F= -.33835619E+03 E0= -.33825176E+03  d E =0.174682E-04
quench:  g(F)=  0.000E+00 g(S)=  0.000E+00 dE (1.order)= 0.000E+00
 bond charge predicted
       N       E                     dE             d eps       ncg     rms          rms(c)
DAV:   1    -0.338356172431E+03    0.18194E-04   -0.25213E-05  3632   0.436E-03    0.135E-03
DAV:   2    -0.338356172622E+03   -0.19141E-06   -0.49890E-07  2176   0.245E-03    0.451E-03
DAV:   3    -0.338356172453E+03    0.16880E-06   -0.22232E-07  2040   0.214E-03    0.171E-03
DAV:   4    -0.338356172451E+03    0.23647E-08   -0.45770E-08  2040   0.904E-04    0.142E-03
DAV:   5    -0.338356172460E+03   -0.94151E-08   -0.39120E-08  2040   0.860E-04
 685 F= -.33835617E+03 E0= -.33825175E+03  d E =0.181569E-04
quench:  g(F)=  0.000E+00 g(S)=  0.000E+00 dE (1.order)= 0.000E+00
 bond charge predicted
       N       E                     dE             d eps       ncg     rms          rms(c)
DAV:   1    -0.338356154165E+03    0.18286E-04   -0.24982E-05  3648   0.440E-03    0.123E-03
DAV:   2    -0.338356154292E+03   -0.12647E-06   -0.44098E-07  2168   0.199E-03    0.417E-03
DAV:   3    -0.338356154185E+03    0.10697E-06   -0.18610E-07  2040   0.173E-03    0.142E-03
DAV:   4    -0.338356154202E+03   -0.17033E-07   -0.49734E-08  2040   0.100E-03    0.213E-03
DAV:   5    -0.338356154177E+03    0.24716E-07   -0.39040E-08  2040   0.906E-04
 686 F= -.33835615E+03 E0= -.33825173E+03  d E =0.182834E-04
quench:  g(F)=  0.000E+00 g(S)=  0.000E+00 dE (1.order)= 0.000E+00
 bond charge predicted
       N       E                     dE             d eps       ncg     rms          rms(c)
DAV:   1    -0.338356135649E+03    0.18553E-04   -0.24805E-05  3624   0.434E-03    0.140E-03
DAV:   2    -0.338356135898E+03   -0.24947E-06   -0.57980E-07  2200   0.267E-03    0.529E-03
DAV:   3    -0.338356135666E+03    0.23248E-06   -0.28861E-07  2048   0.233E-03    0.151E-03
DAV:   4    -0.338356135674E+03   -0.83091E-08   -0.47004E-08  2040   0.917E-04    0.168E-03
DAV:   5    -0.338356135675E+03   -0.97498E-09   -0.44192E-08  2040   0.921E-04
 687 F= -.33835614E+03 E0= -.33825171E+03  d E =0.185016E-04
quench:  g(F)=  0.000E+00 g(S)=  0.000E+00 dE (1.order)= 0.000E+00
 bond charge predicted
       N       E                     dE             d eps       ncg     rms          rms(c)
DAV:   1    -0.338356116939E+03    0.18735E-04   -0.24876E-05  3648   0.439E-03    0.131E-03
DAV:   2    -0.338356117102E+03   -0.16353E-06   -0.51784E-07  2176   0.228E-03    0.479E-03
DAV:   3    -0.338356116973E+03    0.12950E-06   -0.27253E-07  2040   0.204E-03    0.215E-03
DAV:   4    -0.338356116962E+03    0.10528E-07   -0.59360E-08  2040   0.112E-03    0.176E-03
DAV:   5    -0.338356116948E+03    0.14188E-07   -0.34284E-08  2040   0.830E-04
 688 F= -.33835612E+03 E0= -.33825169E+03  d E =0.187272E-04
quench:  g(F)=  0.000E+00 g(S)=  0.000E+00 dE (1.order)= 0.000E+00
 bond charge predicted
       N       E                     dE             d eps       ncg     rms          rms(c)
DAV:   1    -0.338356098192E+03    0.18770E-04   -0.24958E-05  3632   0.437E-03    0.162E-03
DAV:   2    -0.338356098593E+03   -0.40123E-06   -0.83573E-07  2248   0.331E-03    0.686E-03
DAV:   3    -0.338356098199E+03    0.39398E-06   -0.48422E-07  2096   0.289E-03    0.142E-03
DAV:   4    -0.338356098221E+03   -0.21690E-07   -0.56335E-08  2040   0.995E-04    0.198E-03
DAV:   5    -0.338356098213E+03    0.74724E-08   -0.50611E-08  2040   0.997E-04
 689 F= -.33835610E+03 E0= -.33825167E+03  d E =0.187348E-04
quench:  g(F)=  0.000E+00 g(S)=  0.000E+00 dE (1.order)= 0.000E+00
 bond charge predicted
       N       E                     dE             d eps       ncg     rms          rms(c)
DAV:   1    -0.338356079520E+03    0.18701E-04   -0.25182E-05  3640   0.442E-03    0.155E-03
DAV:   2    -0.338356079844E+03   -0.32427E-06   -0.79075E-07  2224   0.305E-03    0.684E-03
DAV:   3    -0.338356079587E+03    0.25727E-06   -0.52520E-07  2080   0.283E-03    0.324E-03
DAV:   4    -0.338356079533E+03    0.53406E-07   -0.90865E-08  2040   0.141E-03    0.162E-03
DAV:   5    -0.338356079523E+03    0.10390E-07   -0.37816E-08  2040   0.843E-04
 690 F= -.33835608E+03 E0= -.33825165E+03  d E =0.186905E-04
quench:  g(F)=  0.000E+00 g(S)=  0.000E+00 dE (1.order)= 0.000E+00
 bond charge predicted
       N       E                     dE             d eps       ncg     rms          rms(c)
DAV:   1    -0.338356061096E+03    0.18437E-04   -0.25312E-05  3624   0.440E-03    0.177E-03
DAV:   2    -0.338356061600E+03   -0.50432E-06   -0.10242E-06  2288   0.372E-03    0.772E-03
DAV:   3    -0.338356061105E+03    0.49493E-06   -0.63749E-07  2128   0.325E-03    0.180E-03
DAV:   4    -0.338356061121E+03   -0.16124E-07   -0.67928E-08  2040   0.109E-03    0.196E-03
DAV:   5    -0.338356061111E+03    0.10572E-07   -0.52035E-08  2040   0.979E-04
 691 F= -.33835606E+03 E0= -.33825164E+03  d E =0.184120E-04
quench:  g(F)=  0.000E+00 g(S)=  0.000E+00 dE (1.order)= 0.000E+00
 bond charge predicted
       N       E                     dE             d eps       ncg     rms          rms(c)
DAV:   1    -0.338356043042E+03    0.18080E-04   -0.25579E-05  3640   0.444E-03    0.167E-03
DAV:   2    -0.338356043421E+03   -0.37957E-06   -0.88515E-07  2224   0.332E-03    0.741E-03
DAV:   3    -0.338356043088E+03    0.33365E-06   -0.58890E-07  2080   0.298E-03    0.282E-03
DAV:   4    -0.338356043060E+03    0.27823E-07   -0.90103E-08  2040   0.136E-03    0.192E-03
DAV:   5    -0.338356043043E+03    0.16509E-07   -0.44277E-08  2040   0.922E-04
 692 F= -.33835604E+03 E0= -.33825161E+03  d E =0.180677E-04
quench:  g(F)=  0.000E+00 g(S)=  0.000E+00 dE (1.order)= 0.000E+00
 bond charge predicted
       N       E                     dE             d eps       ncg     rms          rms(c)
DAV:   1    -0.338356025551E+03    0.17509E-04   -0.25713E-05  3624   0.442E-03    0.183E-03
DAV:   2    -0.338356026094E+03   -0.54317E-06   -0.10927E-06  2288   0.387E-03    0.800E-03
DAV:   3    -0.338356025558E+03    0.53600E-06   -0.68362E-07  2128   0.337E-03    0.175E-03
DAV:   4    -0.338356025579E+03   -0.21457E-07   -0.72002E-08  2040   0.111E-03    0.209E-03
DAV:   5    -0.338356025566E+03    0.13242E-07   -0.53825E-08  2040   0.101E-03
 693 F= -.33835603E+03 E0= -.33825160E+03  d E =0.174771E-04
quench:  g(F)=  0.000E+00 g(S)=  0.000E+00 dE (1.order)= 0.000E+00
 bond charge predicted
       N       E                     dE             d eps       ncg     rms          rms(c)
DAV:   1    -0.338356008750E+03    0.16830E-04   -0.25953E-05  3624   0.444E-03    0.174E-03
DAV:   2    -0.338356009202E+03   -0.45219E-06   -0.10001E-06  2240   0.355E-03    0.810E-03
DAV:   3    -0.338356008807E+03    0.39489E-06   -0.69212E-07  2096   0.323E-03    0.315E-03
DAV:   4    -0.338356008763E+03    0.43990E-07   -0.10018E-07  2040   0.144E-03    0.182E-03
DAV:   5    -0.338356008750E+03    0.13002E-07   -0.45060E-08  2040   0.918E-04
 694 F= -.33835601E+03 E0= -.33825158E+03  d E =0.168160E-04
quench:  g(F)=  0.000E+00 g(S)=  0.000E+00 dE (1.order)= 0.000E+00
 bond charge predicted
       N       E                     dE             d eps       ncg     rms          rms(c)
DAV:   1    -0.338355992869E+03    0.15894E-04   -0.26008E-05  3624   0.441E-03    0.185E-03
DAV:   2    -0.338355993418E+03   -0.54908E-06   -0.11080E-06  2288   0.391E-03    0.803E-03
DAV:   3    -0.338355992873E+03    0.54475E-06   -0.69141E-07  2128   0.339E-03    0.172E-03
DAV:   4    -0.338355992898E+03   -0.24687E-07   -0.73393E-08  2040   0.112E-03    0.215E-03
DAV:   5    -0.338355992883E+03    0.15360E-07   -0.54247E-08  2040   0.103E-03
 695 F= -.33835599E+03 E0= -.33825157E+03  d E =0.158673E-04
quench:  g(F)=  0.000E+00 g(S)=  0.000E+00 dE (1.order)= 0.000E+00
 bond charge predicted
       N       E                     dE             d eps       ncg     rms          rms(c)
DAV:   1    -0.338355978016E+03    0.14882E-04   -0.26138E-05  3624   0.442E-03    0.179E-03
DAV:   2    -0.338355978518E+03   -0.50107E-06   -0.10682E-06  2248   0.369E-03    0.853E-03
DAV:   3    -0.338355978080E+03    0.43767E-06   -0.75412E-07  2096   0.338E-03    0.329E-03
DAV:   4    -0.338355978027E+03    0.52525E-07   -0.10457E-07  2040   0.147E-03    0.177E-03
DAV:   5    -0.338355978017E+03    0.10041E-07   -0.45681E-08  2040   0.915E-04
 696 F= -.33835598E+03 E0= -.33825155E+03  d E =0.148655E-04
quench:  g(F)=  0.000E+00 g(S)=  0.000E+00 dE (1.order)= 0.000E+00
 bond charge predicted
       N       E                     dE             d eps       ncg     rms          rms(c)
DAV:   1    -0.338355964453E+03    0.13575E-04   -0.26022E-05  3624   0.437E-03    0.184E-03
DAV:   2    -0.338355964995E+03   -0.54252E-06   -0.10965E-06  2288   0.389E-03    0.797E-03
DAV:   3    -0.338355964456E+03    0.53943E-06   -0.67944E-07  2128   0.337E-03    0.165E-03
DAV:   4    -0.338355964484E+03   -0.27852E-07   -0.73022E-08  2040   0.112E-03    0.220E-03
DAV:   5    -0.338355964467E+03    0.16873E-07   -0.54061E-08  2040   0.103E-03
 697 F= -.33835596E+03 E0= -.33825154E+03  d E =0.135505E-04
quench:  g(F)=  0.000E+00 g(S)=  0.000E+00 dE (1.order)= 0.000E+00
 bond charge predicted
       N       E                     dE             d eps       ncg     rms          rms(c)
DAV:   1    -0.338355952257E+03    0.12227E-04   -0.25931E-05  3624   0.437E-03    0.181E-03
DAV:   2    -0.338355952800E+03   -0.54313E-06   -0.11218E-06  2248   0.379E-03    0.889E-03
DAV:   3    -0.338355952329E+03    0.47118E-06   -0.80818E-07  2096   0.351E-03    0.349E-03
DAV:   4    -0.338355952265E+03    0.63636E-07   -0.10905E-07  2040   0.150E-03    0.167E-03
DAV:   5    -0.338355952256E+03    0.86584E-08   -0.45229E-08  2040   0.901E-04
 698 F= -.33835595E+03 E0= -.33825152E+03  d E =0.122105E-04
quench:  g(F)=  0.000E+00 g(S)=  0.000E+00 dE (1.order)= 0.000E+00
 bond charge predicted
       N       E                     dE             d eps       ncg     rms          rms(c)
DAV:   1    -0.338355941696E+03    0.10569E-04   -0.25521E-05  3608   0.430E-03    0.182E-03
DAV:   2    -0.338355942222E+03   -0.52661E-06   -0.10633E-06  2288   0.384E-03    0.783E-03
DAV:   3    -0.338355941697E+03    0.52505E-06   -0.65456E-07  2128   0.331E-03    0.158E-03
DAV:   4    -0.338355941728E+03   -0.30894E-07   -0.71399E-08  2040   0.111E-03    0.221E-03
DAV:   5    -0.338355941710E+03    0.18154E-07   -0.52783E-08  2040   0.103E-03
 699 F= -.33835594E+03 E0= -.33825151E+03  d E =0.105464E-04
quench:  g(F)=  0.000E+00 g(S)=  0.000E+00 dE (1.order)= 0.000E+00
 bond charge predicted
       N       E                     dE             d eps       ncg     rms          rms(c)
DAV:   1    -0.338355932792E+03    0.89361E-05   -0.25077E-05  3600   0.427E-03    0.181E-03
DAV:   2    -0.338355933361E+03   -0.56942E-06   -0.11441E-06  2256   0.384E-03    0.911E-03
DAV:   3    -0.338355932869E+03    0.49243E-06   -0.83705E-07  2112   0.358E-03    0.360E-03
DAV:   4    -0.338355932797E+03    0.71625E-07   -0.11023E-07  2040   0.151E-03    0.157E-03
DAV:   5    -0.338355932792E+03    0.53697E-08   -0.44048E-08  2040   0.880E-04
 700 F= -.33835593E+03 E0= -.33825150E+03  d E =0.891792E-05
quench:  g(F)=  0.000E+00 g(S)=  0.000E+00 dE (1.order)= 0.000E+00
 bond charge predicted
       N       E                     dE             d eps       ncg     rms          rms(c)
DAV:   1    -0.338355925787E+03    0.70102E-05   -0.24279E-05  3560   0.417E-03    0.177E-03
DAV:   2    -0.338355926284E+03   -0.49702E-06   -0.10050E-06  2288   0.373E-03    0.758E-03
DAV:   3    -0.338355925790E+03    0.49420E-06   -0.61473E-07  2128   0.321E-03    0.152E-03
DAV:   4    -0.338355925820E+03   -0.30115E-07   -0.68323E-08  2040   0.109E-03    0.219E-03
DAV:   5    -0.338355925802E+03    0.17644E-07   -0.50082E-08  2040   0.101E-03
 701 F= -.33835593E+03 E0= -.33825150E+03  d E =0.698955E-05
quench:  g(F)=  0.000E+00 g(S)=  0.000E+00 dE (1.order)= 0.000E+00
 bond charge predicted
       N       E                     dE             d eps       ncg     rms          rms(c)
DAV:   1    -0.338355920609E+03    0.52108E-05   -0.23454E-05  3504   0.412E-03    0.179E-03
DAV:   2    -0.338355921183E+03   -0.57353E-06   -0.11312E-06  2248   0.383E-03    0.914E-03
DAV:   3    -0.338355920687E+03    0.49567E-06   -0.83508E-07  2104   0.358E-03    0.360E-03
DAV:   4    -0.338355920614E+03    0.73276E-07   -0.10723E-07  2040   0.148E-03    0.147E-03
DAV:   5    -0.338355920610E+03    0.43510E-08   -0.41900E-08  2040   0.851E-04
 702 F= -.33835592E+03 E0= -.33825149E+03  d E =0.519293E-05
quench:  g(F)=  0.000E+00 g(S)=  0.000E+00 dE (1.order)= 0.000E+00
 bond charge predicted
       N       E                     dE             d eps       ncg     rms          rms(c)
DAV:   1    -0.338355917429E+03    0.31848E-05   -0.22384E-05  3440   0.401E-03    0.169E-03
DAV:   2    -0.338355917882E+03   -0.45303E-06   -0.92421E-07  2264   0.357E-03    0.721E-03
DAV:   3    -0.338355917435E+03    0.44709E-06   -0.56341E-07  2104   0.307E-03    0.151E-03
DAV:   4    -0.338355917462E+03   -0.26856E-07   -0.64697E-08  2040   0.106E-03    0.213E-03
DAV:   5    -0.338355917444E+03    0.18248E-07   -0.45697E-08  2040   0.959E-04
 703 F= -.33835592E+03 E0= -.33825149E+03  d E =0.316590E-05
quench:  g(F)=  0.000E+00 g(S)=  0.000E+00 dE (1.order)= 0.000E+00
 bond charge predicted
       N       E                     dE             d eps       ncg     rms          rms(c)
DAV:   1    -0.338355916095E+03    0.13670E-05   -0.21443E-05  3400   0.395E-03    0.174E-03
DAV:   2    -0.338355916636E+03   -0.54109E-06   -0.10690E-06  2232   0.372E-03    0.887E-03
DAV:   3    -0.338355916159E+03    0.47677E-06   -0.78306E-07  2080   0.345E-03    0.330E-03
DAV:   4    -0.338355916099E+03    0.59699E-07   -0.94823E-08  2040   0.138E-03    0.142E-03
DAV:   5    -0.338355916097E+03    0.26557E-08   -0.39324E-08  2040   0.824E-04
 704 F= -.33835592E+03 E0= -.33825149E+03  d E =0.134679E-05
quench:  g(F)=  0.000E+00 g(S)=  0.000E+00 dE (1.order)= 0.000E+00
 bond charge predicted
       N       E                     dE             d eps       ncg     rms          rms(c)
DAV:   1    -0.338355916713E+03   -0.61400E-06   -0.20502E-05  3352   0.386E-03    0.160E-03
DAV:   2    -0.338355917113E+03   -0.39960E-06   -0.82794E-07  2256   0.335E-03    0.674E-03
DAV:   3    -0.338355916724E+03    0.38907E-06   -0.50291E-07  2104   0.288E-03    0.154E-03
DAV:   4    -0.338355916746E+03   -0.21661E-07   -0.60622E-08  2040   0.104E-03    0.201E-03
DAV:   5    -0.338355916729E+03    0.16596E-07   -0.40408E-08  2040   0.899E-04
 705 F= -.33835592E+03 E0= -.33825149E+03  d E =-.632252E-06
quench:  g(F)=  0.000E+00 g(S)=  0.000E+00 dE (1.order)= 0.000E+00
 bond charge predicted
       N       E                     dE             d eps       ncg     rms          rms(c)
DAV:   1    -0.338355919133E+03   -0.23873E-05   -0.19858E-05  3376   0.382E-03    0.168E-03
DAV:   2    -0.338355919637E+03   -0.50394E-06   -0.99874E-07  2208   0.360E-03    0.855E-03
DAV:   3    -0.338355919180E+03    0.45717E-06   -0.71669E-07  2080   0.330E-03    0.283E-03
DAV:   4    -0.338355919139E+03    0.40243E-07   -0.79675E-08  2040   0.123E-03    0.143E-03
DAV:   5    -0.338355919137E+03    0.26048E-08   -0.37383E-08  2040   0.807E-04
 706 F= -.33835592E+03 E0= -.33825149E+03  d E =-.240777E-05
quench:  g(F)=  0.000E+00 g(S)=  0.000E+00 dE (1.order)= 0.000E+00
 bond charge predicted
       N       E                     dE             d eps       ncg     rms          rms(c)
DAV:   1    -0.338355923434E+03   -0.42949E-05   -0.19349E-05  3336   0.379E-03    0.152E-03
DAV:   2    -0.338355923786E+03   -0.35208E-06   -0.74415E-07  2208   0.315E-03    0.629E-03
DAV:   3    -0.338355923448E+03    0.33880E-06   -0.44651E-07  2096   0.270E-03    0.154E-03
DAV:   4    -0.338355923466E+03   -0.18066E-07   -0.56698E-08  2040   0.101E-03    0.193E-03
DAV:   5    -0.338355923450E+03    0.15476E-07   -0.36693E-08  2040   0.858E-04
 707 F= -.33835592E+03 E0= -.33825150E+03  d E =-.431342E-05
quench:  g(F)=  0.000E+00 g(S)=  0.000E+00 dE (1.order)= 0.000E+00
 bond charge predicted
       N       E                     dE             d eps       ncg     rms          rms(c)
DAV:   1    -0.338355929499E+03   -0.60332E-05   -0.19132E-05  3368   0.379E-03    0.165E-03
DAV:   2    -0.338355929984E+03   -0.48515E-06   -0.96227E-07  2200   0.354E-03    0.838E-03
DAV:   3    -0.338355929538E+03    0.44573E-06   -0.68078E-07  2080   0.322E-03    0.258E-03
DAV:   4    -0.338355929508E+03    0.30283E-07   -0.72116E-08  2040   0.116E-03    0.142E-03
DAV:   5    -0.338355929504E+03    0.40527E-08   -0.36127E-08  2040   0.794E-04
 708 F= -.33835593E+03 E0= -.33825150E+03  d E =-.605377E-05
quench:  g(F)=  0.000E+00 g(S)=  0.000E+00 dE (1.order)= 0.000E+00
 bond charge predicted
       N       E                     dE             d eps       ncg     rms          rms(c)
DAV:   1    -0.338355937345E+03   -0.78368E-05   -0.19016E-05  3352   0.380E-03    0.147E-03
DAV:   2    -0.338355937669E+03   -0.32387E-06   -0.69763E-07  2200   0.302E-03    0.601E-03
DAV:   3    -0.338355937360E+03    0.30854E-06   -0.41346E-07  2096   0.259E-03    0.156E-03
DAV:   4    -0.338355937376E+03   -0.15527E-07   -0.54841E-08  2040   0.100E-03    0.187E-03
DAV:   5    -0.338355937361E+03    0.14341E-07   -0.34638E-08  2040   0.834E-04
 709 F= -.33835594E+03 E0= -.33825151E+03  d E =-.785731E-05
quench:  g(F)=  0.000E+00 g(S)=  0.000E+00 dE (1.order)= 0.000E+00
 bond charge predicted
       N       E                     dE             d eps       ncg     rms          rms(c)
DAV:   1    -0.338355946839E+03   -0.94638E-05   -0.19098E-05  3376   0.383E-03    0.164E-03
DAV:   2    -0.338355947319E+03   -0.47964E-06   -0.95334E-07  2192   0.352E-03    0.832E-03
DAV:   3    -0.338355946873E+03    0.44600E-06   -0.66502E-07  2072   0.318E-03    0.241E-03
DAV:   4    -0.338355946850E+03    0.23203E-07   -0.68113E-08  2040   0.111E-03    0.145E-03
DAV:   5    -0.338355946846E+03    0.42855E-08   -0.36132E-08  2040   0.797E-04
 710 F= -.33835595E+03 E0= -.33825152E+03  d E =-.948424E-05
quench:  g(F)=  0.000E+00 g(S)=  0.000E+00 dE (1.order)= 0.000E+00
 bond charge predicted
       N       E                     dE             d eps       ncg     rms          rms(c)
DAV:   1    -0.338355957899E+03   -0.11049E-04   -0.19216E-05  3384   0.387E-03    0.146E-03
DAV:   2    -0.338355958211E+03   -0.31219E-06   -0.68434E-07  2200   0.297E-03    0.589E-03
DAV:   3    -0.338355957916E+03    0.29516E-06   -0.40228E-07  2096   0.255E-03    0.159E-03
DAV:   4    -0.338355957929E+03   -0.13373E-07   -0.54846E-08  2040   0.100E-03    0.185E-03
DAV:   5    -0.338355957916E+03    0.13235E-07   -0.34103E-08  2040   0.829E-04
 711 F= -.33835596E+03 E0= -.33825153E+03  d E =-.110706E-04
quench:  g(F)=  0.000E+00 g(S)=  0.000E+00 dE (1.order)= 0.000E+00
 reached required accuracy - stopping structural energy minimisation
