  67  67   0   0
  0.3503968E+02  0.1114491E-08  0.1114491E-08  0.2182484E-08  0.2000000E-17
  1.000000000000000E-004
  CAR 
 Si-Diamond                              
      9.11016082    -24.40356594  301      0.82732465      1.00000000
    -24.404  0.0000E+00  0.0000E+00
    -24.292  0.0000E+00  0.0000E+00
    -24.180  0.0000E+00  0.0000E+00
    -24.068 -0.3983E-31 -0.4449E-32
    -23.957 -0.2975E-27 -0.3323E-28
    -23.845 -0.1184E-23 -0.1323E-24
    -23.733 -0.2510E-20 -0.2806E-21
    -23.622 -0.2831E-17 -0.3165E-18
    -23.510 -0.1641E-14 -0.1836E-15
    -23.398 -0.5168E-12 -0.5792E-13
    -23.286 -0.8572E-10 -0.9634E-11
    -23.175 -0.7439E-08 -0.8406E-09
    -23.063 -0.3339E-06 -0.3814E-07
    -22.951 -0.7582E-05 -0.8851E-06
    -22.840 -0.8300E-04 -0.1016E-04
    -22.728 -0.3783E-03 -0.5242E-04
    -22.616 -0.1808E-03 -0.7261E-04
    -22.504  0.3356E-02  0.3023E-03
    -22.393  0.8900E-02  0.1297E-02
    -22.281  0.8093E-02  0.2201E-02
    -22.169  0.2334E-02  0.2461E-02
    -22.058 -0.3763E-03  0.2419E-02
    -21.946 -0.3078E-03  0.2385E-02
    -21.834 -0.5577E-04  0.2379E-02
    -21.722 -0.4402E-05  0.2378E-02
    -21.611 -0.1697E-06  0.2378E-02
    -21.499 -0.3329E-08  0.2378E-02
    -21.387 -0.3386E-10  0.2378E-02
    -21.276 -0.1805E-12  0.2378E-02
    -21.164 -0.5095E-15  0.2378E-02
    -21.052  0.0000E+00  0.2378E-02
    -20.940  0.0000E+00  0.2378E-02
    -20.829  0.0000E+00  0.2378E-02
    -20.717  0.0000E+00  0.2378E-02
    -20.605  0.0000E+00  0.2378E-02
    -20.494  0.0000E+00  0.2378E-02
    -20.382  0.0000E+00  0.2378E-02
    -20.270  0.0000E+00  0.2378E-02
    -20.158  0.0000E+00  0.2378E-02
    -20.047  0.0000E+00  0.2378E-02
    -19.935  0.0000E+00  0.2378E-02
    -19.823  0.0000E+00  0.2378E-02
    -19.712 -0.1995E-32  0.2378E-02
    -19.600 -0.1823E-28  0.2378E-02
    -19.488 -0.8881E-25  0.2378E-02
    -19.377 -0.2305E-21  0.2378E-02
    -19.265 -0.3183E-18  0.2378E-02
    -19.153 -0.2265E-15  0.2378E-02
    -19.041 -0.8754E-13  0.2378E-02
    -18.930 -0.1785E-10  0.2378E-02
    -18.818 -0.1908E-08  0.2378E-02
    -18.706 -0.1060E-06  0.2378E-02
    -18.595 -0.3005E-05  0.2378E-02
    -18.483 -0.4193E-04  0.2373E-02
    -18.371 -0.2611E-03  0.2344E-02
    -18.259 -0.4477E-03  0.2294E-02
    -18.148  0.1728E-02  0.2487E-02
    -18.036  0.7425E-02  0.3316E-02
    -17.924  0.9292E-02  0.4354E-02
    -17.813  0.4112E-02  0.4814E-02
    -17.701  0.2477E-04  0.4817E-02
    -17.589 -0.4223E-03  0.4769E-02
    -17.477 -0.1067E-03  0.4758E-02
    -17.366 -0.1078E-04  0.4756E-02
    -17.254 -0.5198E-06  0.4756E-02
    -17.142 -0.1263E-07  0.4756E-02
    -17.031 -0.1583E-09  0.4756E-02
    -16.919 -0.1038E-11  0.4756E-02
    -16.807 -0.3579E-14  0.4756E-02
    -16.695 -0.4727E-17  0.4756E-02
    -16.584  0.0000E+00  0.4756E-02
    -16.472  0.0000E+00  0.4756E-02
    -16.360  0.0000E+00  0.4756E-02
    -16.249  0.0000E+00  0.4756E-02
    -16.137  0.0000E+00  0.4756E-02
    -16.025  0.0000E+00  0.4756E-02
    -15.913  0.0000E+00  0.4756E-02
    -15.802  0.0000E+00  0.4756E-02
    -15.690  0.0000E+00  0.4756E-02
    -15.578  0.0000E+00  0.4756E-02
    -15.467  0.0000E+00  0.4756E-02
    -15.355  0.0000E+00  0.4756E-02
    -15.243  0.0000E+00  0.4756E-02
    -15.131  0.0000E+00  0.4756E-02
    -15.020  0.0000E+00  0.4756E-02
    -14.908  0.0000E+00  0.4756E-02
    -14.796  0.0000E+00  0.4756E-02
    -14.685  0.0000E+00  0.4756E-02
    -14.573  0.0000E+00  0.4756E-02
    -14.461  0.0000E+00  0.4756E-02
    -14.349  0.0000E+00  0.4756E-02
    -14.238  0.0000E+00  0.4756E-02
    -14.126  0.0000E+00  0.4756E-02
    -14.014  0.0000E+00  0.4756E-02
    -13.903  0.0000E+00  0.4756E-02
    -13.791  0.0000E+00  0.4756E-02
    -13.679  0.0000E+00  0.4756E-02
    -13.567  0.0000E+00  0.4756E-02
    -13.456  0.0000E+00  0.4756E-02
    -13.344  0.0000E+00  0.4756E-02
    -13.232  0.0000E+00  0.4756E-02
    -13.121  0.0000E+00  0.4756E-02
    -13.009  0.0000E+00  0.4756E-02
    -12.897  0.0000E+00  0.4756E-02
    -12.785  0.0000E+00  0.4756E-02
    -12.674  0.0000E+00  0.4756E-02
    -12.562  0.0000E+00  0.4756E-02
    -12.450  0.0000E+00  0.4756E-02
    -12.339  0.0000E+00  0.4756E-02
    -12.227  0.0000E+00  0.4756E-02
    -12.115  0.0000E+00  0.4756E-02
    -12.003  0.0000E+00  0.4756E-02
    -11.892  0.0000E+00  0.4756E-02
    -11.780  0.0000E+00  0.4756E-02
    -11.668  0.0000E+00  0.4756E-02
    -11.557  0.0000E+00  0.4756E-02
    -11.445  0.0000E+00  0.4756E-02
    -11.333  0.0000E+00  0.4756E-02
    -11.222  0.0000E+00  0.4756E-02
    -11.110  0.0000E+00  0.4756E-02
    -10.998 -0.1461E-29  0.4756E-02
    -10.886 -0.8510E-26  0.4756E-02
    -10.775 -0.2641E-22  0.4756E-02
    -10.663 -0.4362E-19  0.4756E-02
    -10.551 -0.3712E-16  0.4756E-02
    -10.440 -0.1723E-13  0.4756E-02
    -10.328 -0.4214E-11  0.4756E-02
    -10.216 -0.5415E-09  0.4756E-02
    -10.104 -0.3627E-07  0.4756E-02
     -9.993 -0.1248E-05  0.4756E-02
     -9.881 -0.2141E-04  0.4754E-02
     -9.769 -0.1706E-03  0.4735E-02
     -9.658 -0.4820E-03  0.4681E-02
     -9.546  0.6714E-03  0.4756E-02
     -9.434  0.5750E-02  0.5398E-02
     -9.322  0.9640E-02  0.6475E-02
     -9.211  0.5859E-02  0.7130E-02
     -9.099  0.7254E-03  0.7211E-02
     -8.987 -0.4836E-03  0.7157E-02
     -8.876 -0.1756E-03  0.7137E-02
     -8.764 -0.2236E-04  0.7135E-02
     -8.652 -0.1319E-05  0.7134E-02
     -8.540 -0.3881E-07  0.7134E-02
     -8.429 -0.5862E-09  0.7134E-02
     -8.317 -0.4613E-11  0.7134E-02
     -8.205 -0.1907E-13  0.7134E-02
     -8.094 -0.4254E-16  0.7134E-02
     -7.982  0.0000E+00  0.7134E-02
     -7.870  0.0000E+00  0.7134E-02
     -7.758 -0.2211E-32  0.7134E-02
     -7.647 -0.2190E-28  0.7134E-02
     -7.535 -0.1076E-24  0.7134E-02
     -7.423 -0.2824E-21  0.7134E-02
     -7.312 -0.3954E-18  0.7134E-02
     -7.200 -0.2870E-15  0.7134E-02
     -7.088 -0.1131E-12  0.7134E-02
     -6.976 -0.2365E-10  0.7134E-02
     -6.865 -0.2608E-08  0.7134E-02
     -6.753 -0.1503E-06  0.7134E-02
     -6.641 -0.4458E-05  0.7134E-02
     -6.530 -0.6576E-04  0.7127E-02
     -6.418 -0.4428E-03  0.7077E-02
     -6.306 -0.9274E-03  0.6973E-02
     -6.194  0.2526E-02  0.7256E-02
     -6.083  0.1339E-01  0.8752E-02
     -5.971  0.1890E-01  0.1086E-01
     -5.859  0.9710E-02  0.1195E-01
     -5.748  0.4705E-03  0.1200E-01
     -5.636 -0.1283E-02  0.1186E-01
     -5.524  0.3085E-03  0.1189E-01
     -5.412  0.5718E-02  0.1253E-01
     -5.301  0.1328E-01  0.1401E-01
     -5.189  0.1283E-01  0.1545E-01
     -5.077  0.5592E-02  0.1607E-01
     -4.966  0.7113E-02  0.1687E-01
     -4.854  0.1946E-01  0.1904E-01
     -4.742  0.2881E-01  0.2226E-01
     -4.630  0.2493E-01  0.2504E-01
     -4.519  0.1142E-01  0.2632E-01
     -4.407  0.2166E-02  0.2656E-01
     -4.295  0.6133E-02  0.2725E-01
     -4.184  0.1640E-01  0.2908E-01
     -4.072  0.1713E-01  0.3099E-01
     -3.960  0.1467E-01  0.3263E-01
     -3.848  0.3012E-01  0.3600E-01
     -3.737  0.6542E-01  0.4330E-01
     -3.625  0.1012E+00  0.5461E-01
     -3.513  0.1169E+00  0.6767E-01
     -3.402  0.1290E+00  0.8207E-01
     -3.290  0.1616E+00  0.1001E+00
     -3.178  0.1811E+00  0.1204E+00
     -3.066  0.1606E+00  0.1383E+00
     -2.955  0.1319E+00  0.1530E+00
     -2.843  0.1275E+00  0.1673E+00
     -2.731  0.1369E+00  0.1826E+00
     -2.620  0.1404E+00  0.1983E+00
     -2.508  0.1348E+00  0.2133E+00
     -2.396  0.1231E+00  0.2271E+00
     -2.285  0.1177E+00  0.2402E+00
     -2.173  0.1181E+00  0.2534E+00
     -2.061  0.1219E+00  0.2670E+00
     -1.949  0.1357E+00  0.2822E+00
     -1.838  0.1509E+00  0.2990E+00
     -1.726  0.1656E+00  0.3175E+00
     -1.614  0.1794E+00  0.3376E+00
     -1.503  0.1982E+00  0.3597E+00
     -1.391  0.2261E+00  0.3850E+00
     -1.279  0.2342E+00  0.4112E+00
     -1.167  0.2052E+00  0.4341E+00
     -1.056  0.1689E+00  0.4529E+00
     -0.944  0.1587E+00  0.4707E+00
     -0.832  0.1503E+00  0.4875E+00
     -0.721  0.1438E+00  0.5035E+00
     -0.609  0.1622E+00  0.5216E+00
     -0.497  0.1774E+00  0.5414E+00
     -0.385  0.1691E+00  0.5603E+00
     -0.274  0.1439E+00  0.5764E+00
     -0.162  0.1374E+00  0.5918E+00
     -0.050  0.1618E+00  0.6098E+00
      0.061  0.1861E+00  0.6306E+00
      0.173  0.1934E+00  0.6522E+00
      0.285  0.1775E+00  0.6721E+00
      0.397  0.1490E+00  0.6887E+00
      0.508  0.1519E+00  0.7057E+00
      0.620  0.2082E+00  0.7290E+00
      0.732  0.2554E+00  0.7575E+00
      0.843  0.2312E+00  0.7833E+00
      0.955  0.1618E+00  0.8014E+00
      1.067  0.9266E-01  0.8117E+00
      1.179  0.4490E-01  0.8168E+00
      1.290  0.1905E-01  0.8189E+00
      1.402  0.7093E-02  0.8197E+00
      1.514  0.1096E-01  0.8209E+00
      1.625  0.2692E-01  0.8239E+00
      1.737  0.3470E-01  0.8278E+00
      1.849  0.2711E-01  0.8308E+00
      1.961  0.1980E-01  0.8330E+00
      2.072  0.2376E-01  0.8357E+00
      2.184  0.2634E-01  0.8386E+00
      2.296  0.2319E-01  0.8412E+00
      2.407  0.2273E-01  0.8438E+00
      2.519  0.2062E-01  0.8461E+00
      2.631  0.1570E-01  0.8478E+00
      2.743  0.1314E-01  0.8493E+00
      2.854  0.1362E-01  0.8508E+00
      2.966  0.1812E-01  0.8528E+00
      3.078  0.2342E-01  0.8554E+00
      3.189  0.2942E-01  0.8587E+00
      3.301  0.3408E-01  0.8625E+00
      3.413  0.3297E-01  0.8662E+00
      3.525  0.3077E-01  0.8697E+00
      3.636  0.2919E-01  0.8729E+00
      3.748  0.3046E-01  0.8763E+00
      3.860  0.3634E-01  0.8804E+00
      3.971  0.3547E-01  0.8843E+00
      4.083  0.2522E-01  0.8872E+00
      4.195  0.1443E-01  0.8888E+00
      4.307  0.8073E-02  0.8897E+00
      4.418  0.1051E-01  0.8909E+00
      4.530  0.2175E-01  0.8933E+00
      4.642  0.3194E-01  0.8969E+00
      4.753  0.2918E-01  0.9001E+00
      4.865  0.1748E-01  0.9021E+00
      4.977  0.1494E-01  0.9037E+00
      5.089  0.2636E-01  0.9067E+00
      5.200  0.3426E-01  0.9105E+00
      5.312  0.2820E-01  0.9137E+00
      5.424  0.1577E-01  0.9154E+00
      5.535  0.1213E-01  0.9168E+00
      5.647  0.2730E-01  0.9198E+00
      5.759  0.4235E-01  0.9246E+00
      5.871  0.3838E-01  0.9288E+00
      5.982  0.2818E-01  0.9320E+00
      6.094  0.2213E-01  0.9345E+00
      6.206  0.1797E-01  0.9365E+00
      6.317  0.1544E-01  0.9382E+00
      6.429  0.1489E-01  0.9399E+00
      6.541  0.1772E-01  0.9418E+00
      6.652  0.2516E-01  0.9446E+00
      6.764  0.2823E-01  0.9478E+00
      6.876  0.1994E-01  0.9500E+00
      6.988  0.7926E-02  0.9509E+00
      7.099  0.1965E-02  0.9511E+00
      7.211  0.9257E-03  0.9512E+00
      7.323  0.2818E-03  0.9513E+00
      7.434 -0.1019E-03  0.9513E+00
      7.546 -0.6973E-04  0.9513E+00
      7.658 -0.1317E-04  0.9512E+00
      7.770 -0.1108E-05  0.9512E+00
      7.881 -0.4600E-07  0.9512E+00
      7.993 -0.9799E-09  0.9512E+00
      8.105 -0.1090E-10  0.9512E+00
      8.216 -0.6396E-13  0.9512E+00
      8.328 -0.1985E-15  0.9512E+00
      8.440 -0.5252E-18  0.9512E+00
      8.552  0.0000E+00  0.9512E+00
      8.663  0.0000E+00  0.9512E+00
      8.775  0.0000E+00  0.9512E+00
      8.887  0.0000E+00  0.9512E+00
      8.998  0.0000E+00  0.9512E+00
      9.110  0.0000E+00  0.9512E+00
