 vasp.5.4.4.18Apr17-6-g9f103f2a35 (build Aug 16 2021 22:57:11) complex          
  
 executed on             LinuxIFC date 2021.12.19  08:01:26
 running on  128 total cores
 distrk:  each k-point on  128 cores,    1 groups
 distr:  one band on NCORES_PER_BAND=  16 cores,    8 groups


--------------------------------------------------------------------------------------------------------


 INCAR:
 POTCAR:    PAW_PBE Pd 04Jan2005                  
 POTCAR:    PAW_PBE N 08Apr2002                   
 POTCAR:    PAW_PBE O 08Apr2002                   
 POTCAR:    PAW_PBE Pd 04Jan2005                  
   VRHFIN =Pd : s1 d9                                                           
   LEXCH  = PE                                                                  
   EATOM  =   809.7530 eV,   59.5152 Ry                                         
                                                                                
   TITEL  = PAW_PBE Pd 04Jan2005                                                
   LULTRA =        F    use ultrasoft PP ?                                      
   IUNSCR =        1    unscreen: 0-lin 1-nonlin 2-no                           
   RPACOR =    2.000    partial core radius                                     
   POMASS =  106.420; ZVAL   =   10.000    mass and valenz                      
   RCORE  =    2.600    outmost cutoff radius                                   
   RWIGS  =    2.710; RWIGS  =    1.434    wigner-seitz radius (au A)           
   ENMAX  =  250.925; ENMIN  =  188.194 eV                                      
   ICORE  =        3    local potential                                         
   LCOR   =        T    correct aug charges                                     
   LPAW   =        T    paw PP                                                  
   EAUG   =  416.230                                                            
   DEXC   =    0.000                                                            
   RMAX   =    2.653    core radius for proj-oper                               
   RAUG   =    1.300    factor for augmentation sphere                          
   RDEP   =    2.734    radius for radial grids                                 
   RDEPT  =    2.103    core radius for aug-charge                              
                                                                                
   Atomic configuration                                                         
   12 entries                                                                   
     n  l   j            E        occ.                                          
     1  0  0.50    -24164.6631   2.0000                                         
     2  0  0.50     -3530.9218   2.0000                                         
     2  1  1.50     -3165.6822   6.0000                                         
     3  0  0.50      -639.4577   2.0000                                         
     3  1  1.50      -519.4532   6.0000                                         
     3  2  2.50      -328.9757  10.0000                                         
     4  0  0.50       -88.7014   2.0000                                         
     4  1  1.50       -54.4540   6.0000                                         
     4  2  2.50        -6.6878   9.0000                                         
     5  0  0.50        -4.3543   1.0000                                         
     5  1  0.50        -1.3606   0.0000                                         
     4  3  2.50        -1.3606   0.0000                                         
   Description                                                                  
     l       E           TYP  RCUT    TYP  RCUT                                 
     2     -6.6878251     23  2.400                                             
     2     -8.0484077     23  2.400                                             
     0     -4.3542939     23  2.400                                             
     0      4.3406793     23  2.400                                             
     1     -4.0817478     23  2.600                                             
     1     15.8380318     23  2.600                                             
     3     -4.0817478     23  2.400                                             
  local pseudopotential read in
  partial core-charges read in
  partial kinetic energy density read in
  atomic valenz-charges read in
  non local Contribution for L=           2  read in
    real space projection operators read in
  non local Contribution for L=           2  read in
    real space projection operators read in
  non local Contribution for L=           0  read in
    real space projection operators read in
  non local Contribution for L=           0  read in
    real space projection operators read in
  non local Contribution for L=           1  read in
    real space projection operators read in
  non local Contribution for L=           1  read in
    real space projection operators read in
    PAW grid and wavefunctions read in
 
   number of l-projection  operators is LMAX  =           6
   number of lm-projection operators is LMMAX =          18
 
 POTCAR:    PAW_PBE N 08Apr2002                   
   VRHFIN =N: s2p3                                                              
   LEXCH  = PE                                                                  
   EATOM  =   264.5486 eV,   19.4438 Ry                                         
                                                                                
   TITEL  = PAW_PBE N 08Apr2002                                                 
   LULTRA =        F    use ultrasoft PP ?                                      
   IUNSCR =        1    unscreen: 0-lin 1-nonlin 2-no                           
   RPACOR =    1.200    partial core radius                                     
   POMASS =   14.001; ZVAL   =    5.000    mass and valenz                      
   RCORE  =    1.500    outmost cutoff radius                                   
   RWIGS  =    1.400; RWIGS  =    0.741    wigner-seitz radius (au A)           
   ENMAX  =  400.000; ENMIN  =  300.000 eV                                      
   ICORE  =        2    local potential                                         
   LCOR   =        T    correct aug charges                                     
   LPAW   =        T    paw PP                                                  
   EAUG   =  627.112                                                            
   DEXC   =    0.000                                                            
   RMAX   =    1.529    core radius for proj-oper                               
   RAUG   =    1.300    factor for augmentation sphere                          
   RDEP   =    1.514    radius for radial grids                                 
   RDEPT  =    1.338    core radius for aug-charge                              
                                                                                
   Atomic configuration                                                         
    4 entries                                                                   
     n  l   j            E        occ.                                          
     1  0  0.50      -384.7179   2.0000                                         
     2  0  0.50       -18.5828   2.0000                                         
     2  1  0.50        -7.0898   3.0000                                         
     3  2  1.50        -6.8029   0.0000                                         
   Description                                                                  
     l       E           TYP  RCUT    TYP  RCUT                                 
     0    -18.5828119     23  1.200                                             
     0    -13.5018863     23  1.200                                             
     1     -7.0897853     23  1.500                                             
     1      9.5240782     23  1.500                                             
     2     -6.8029130      7  1.500                                             
  local pseudopotential read in
  partial core-charges read in
  partial kinetic energy density read in
  atomic valenz-charges read in
  non local Contribution for L=           0  read in
    real space projection operators read in
  non local Contribution for L=           0  read in
    real space projection operators read in
  non local Contribution for L=           1  read in
    real space projection operators read in
  non local Contribution for L=           1  read in
    real space projection operators read in
    PAW grid and wavefunctions read in
 
   number of l-projection  operators is LMAX  =           4
   number of lm-projection operators is LMMAX =           8
 
 POTCAR:    PAW_PBE O 08Apr2002                   
   VRHFIN =O: s2p4                                                              
   LEXCH  = PE                                                                  
   EATOM  =   432.3788 eV,   31.7789 Ry                                         
                                                                                
   TITEL  = PAW_PBE O 08Apr2002                                                 
   LULTRA =        F    use ultrasoft PP ?                                      
   IUNSCR =        1    unscreen: 0-lin 1-nonlin 2-no                           
   RPACOR =    1.200    partial core radius                                     
   POMASS =   16.000; ZVAL   =    6.000    mass and valenz                      
   RCORE  =    1.520    outmost cutoff radius                                   
   RWIGS  =    1.550; RWIGS  =    0.820    wigner-seitz radius (au A)           
   ENMAX  =  400.000; ENMIN  =  300.000 eV                                      
   ICORE  =        2    local potential                                         
   LCOR   =        T    correct aug charges                                     
   LPAW   =        T    paw PP                                                  
   EAUG   =  605.392                                                            
   DEXC   =    0.000                                                            
   RMAX   =    1.553    core radius for proj-oper                               
   RAUG   =    1.300    factor for augmentation sphere                          
   RDEP   =    1.550    radius for radial grids                                 
   RDEPT  =    1.329    core radius for aug-charge                              
                                                                                
   Atomic configuration                                                         
    4 entries                                                                   
     n  l   j            E        occ.                                          
     1  0  0.50      -514.6923   2.0000                                         
     2  0  0.50       -23.9615   2.0000                                         
     2  1  0.50        -9.0305   4.0000                                         
     3  2  1.50        -9.5241   0.0000                                         
   Description                                                                  
     l       E           TYP  RCUT    TYP  RCUT                                 
     0    -23.9615318     23  1.200                                             
     0     -9.5240782     23  1.200                                             
     1     -9.0304911     23  1.520                                             
     1      8.1634956     23  1.520                                             
     2     -9.5240782      7  1.500                                             
  local pseudopotential read in
  partial core-charges read in
  partial kinetic energy density read in
  kinetic energy density of atom read in
  atomic valenz-charges read in
  non local Contribution for L=           0  read in
    real space projection operators read in
  non local Contribution for L=           0  read in
    real space projection operators read in
  non local Contribution for L=           1  read in
    real space projection operators read in
  non local Contribution for L=           1  read in
    real space projection operators read in
    PAW grid and wavefunctions read in
 
   number of l-projection  operators is LMAX  =           4
   number of lm-projection operators is LMMAX =           8
 

 ----------------------------------------------------------------------------- 
|                                                                             |
|  ADVICE TO THIS USER RUNNING 'VASP/VAMP'   (HEAR YOUR MASTER'S VOICE ...):  |
|                                                                             |
|      You have a (more or less) 'large supercell' and for larger cells       |
|      it might be more efficient to use real space projection opertators     |
|      So try LREAL= Auto  in the INCAR   file.                               |
|      Mind:          For very  accurate calculation you might also keep the  |
|      reciprocal projection scheme          (i.e. LREAL=.FALSE.)             |
|                                                                             |
 ----------------------------------------------------------------------------- 

  PAW_PBE Pd 04Jan2005                  :
 energy of atom  1       EATOM= -809.7530
 kinetic energy error for atom=    0.0091 (will be added to EATOM!!)
  PAW_PBE N 08Apr2002                   :
 energy of atom  2       EATOM= -264.5486
 kinetic energy error for atom=    0.0736 (will be added to EATOM!!)
  PAW_PBE O 08Apr2002                   :
 energy of atom  3       EATOM= -432.3788
 kinetic energy error for atom=    0.1156 (will be added to EATOM!!)
 
 
 POSCAR: Pd  N  O                                
  positions in direct lattice
  velocities in cartesian coordinates
 exchange correlation table for  LEXCH =        8
   RHO(1)=    0.500       N(1)  =     2000
   RHO(2)=  100.500       N(2)  =     4000

 VTST: version 3.2, (02/03/18)

 CHAIN: initializing optimizer
 
 OPT: Using VASP Dynamics algorithm
 CHAIN: Read ICHAIN            0
 
 POSCAR: Pd  N  O                                
  positions in direct lattice
  velocities in cartesian coordinates
 


--------------------------------------------------------------------------------------------------------


 ion  position               nearest neighbor table
   1  0.000  0.000  0.344-  20 2.79  29 2.79  17 2.79   8 2.79   2 2.79   4 2.79   5 2.79  14 2.79
                            13 2.79
   2  0.250  0.000  0.344-  17 2.79  30 2.79  18 2.79   5 2.79   1 2.79   3 2.79   6 2.79  15 2.79
                            14 2.79
   3  0.500  0.000  0.344-  18 2.79  31 2.79  19 2.79   6 2.79   2 2.79   4 2.79   7 2.79  16 2.79
                            15 2.79
   4  0.750  0.000  0.344-  19 2.79  32 2.79  20 2.79   7 2.79   1 2.79   3 2.79   8 2.79  13 2.79
                            16 2.79
   5  0.000  0.250  0.344-  24 2.79  17 2.79  21 2.79  12 2.79   2 2.79   6 2.79   8 2.79   1 2.79
                             9 2.79
   6  0.250  0.250  0.344-  21 2.79  18 2.79  22 2.79   9 2.79   3 2.79   5 2.79   7 2.79  10 2.79
                             2 2.79
   7  0.500  0.250  0.344-  22 2.79  19 2.79  23 2.79  10 2.79   4 2.79   6 2.79   8 2.79  11 2.79
                             3 2.79
   8  0.750  0.250  0.344-  23 2.79  20 2.79  24 2.79  11 2.79   1 2.79   5 2.79   7 2.79  12 2.79
                             4 2.79
   9  0.000  0.500  0.344-  13 2.79  21 2.79  25 2.79  16 2.79  10 2.79  28 2.79   6 2.79   5 2.79
                            12 2.79
  10  0.250  0.500  0.344-  13 2.79  14 2.79  25 2.79  22 2.79   9 2.79  26 2.79   7 2.79  11 2.79
                             6 2.79
  11  0.500  0.500  0.344-  14 2.79  15 2.79  26 2.79  23 2.79  27 2.79   8 2.79  12 2.79  10 2.79
                             7 2.79
  12  0.750  0.500  0.344-  15 2.79  16 2.79  27 2.79  24 2.79  28 2.79   5 2.79  11 2.79   8 2.79
                             9 2.79
  13  0.000  0.750  0.344-  25 2.79   9 2.79  10 2.79  32 2.79  29 2.79  16 2.79  14 2.79   4 2.79
                             1 2.79
  14  0.250  0.750  0.344-  26 2.79  11 2.79  10 2.79  29 2.79  30 2.79  15 2.79  13 2.79   1 2.79
                             2 2.79
  15  0.500  0.750  0.344-  27 2.79  12 2.79  11 2.79  30 2.79  31 2.79  16 2.79  14 2.79   2 2.79
                             3 2.79
  16  0.750  0.750  0.344-  28 2.79  12 2.79   9 2.79  31 2.79  32 2.79  15 2.79  13 2.79   3 2.79
                             4 2.79
  17  0.083  0.083  0.448-   2 2.79   5 2.79   1 2.79  24 2.79  30 2.79  18 2.79  20 2.79  29 2.79
                            21 2.79  34 2.80  33 2.80  46 2.80
  18  0.333  0.083  0.448-   3 2.79   6 2.79   2 2.79  21 2.79  31 2.79  17 2.79  19 2.79  30 2.79
                            22 2.79  35 2.80  34 2.80  47 2.80
  19  0.583  0.083  0.448-   4 2.79   7 2.79   3 2.79  22 2.79  32 2.79  18 2.79  20 2.79  31 2.79
                            23 2.79  36 2.80  35 2.80  48 2.80
  20  0.833  0.083  0.448-   1 2.79   8 2.79   4 2.79  23 2.79  29 2.79  17 2.79  19 2.79  24 2.79
                            32 2.79  33 2.80  36 2.80  45 2.80
  21  0.083  0.333  0.448-   6 2.79   9 2.79   5 2.79  18 2.79  28 2.79  24 2.79  22 2.79  25 2.79
                            17 2.79  38 2.80  37 2.80  34 2.80
  22  0.333  0.333  0.448-   7 2.79  10 2.79   6 2.79  19 2.79  25 2.79  23 2.79  21 2.79  18 2.79
                            26 2.79  39 2.80  38 2.80  35 2.80
  23  0.583  0.333  0.448-   8 2.79  11 2.79   7 2.79  20 2.79  26 2.79  24 2.79  22 2.79  19 2.79
                            27 2.79  40 2.80  39 2.80  36 2.80
  24  0.833  0.333  0.448-   5 2.79  12 2.79   8 2.79  17 2.79  27 2.79  23 2.79  21 2.79  20 2.79
                            28 2.79  37 2.80  40 2.80  33 2.80
  25  0.083  0.583  0.448-  13 2.79  10 2.79   9 2.79  22 2.79  32 2.79  28 2.79  26 2.79  29 2.79
                            21 2.79  42 2.80  41 2.80  38 2.80
  26  0.333  0.583  0.448-  14 2.79  11 2.79  10 2.79  23 2.79  29 2.79  27 2.79  25 2.79  22 2.79
                            30 2.79  43 2.80  42 2.80  39 2.80
  27  0.583  0.583  0.448-  15 2.79  12 2.79  11 2.79  24 2.79  30 2.79  28 2.79  26 2.79  23 2.79
                            31 2.79  44 2.80  43 2.80  40 2.80
  28  0.833  0.583  0.448-  16 2.79   9 2.79  12 2.79  21 2.79  31 2.79  27 2.79  25 2.79  24 2.79
                            32 2.79  41 2.80  44 2.80  37 2.80
  29  0.083  0.833  0.448-   1 2.79  14 2.79  13 2.79  20 2.79  26 2.79  30 2.79  32 2.79  25 2.79
                            17 2.79  46 2.80  45 2.80  42 2.80
  30  0.333  0.833  0.448-   2 2.79  15 2.79  14 2.79  17 2.79  27 2.79  29 2.79  31 2.79  26 2.79
                            18 2.79  47 2.80  46 2.80  43 2.80
  31  0.583  0.833  0.448-   3 2.79  16 2.79  15 2.79  18 2.79  28 2.79  30 2.79  32 2.79  27 2.79
                            19 2.79  48 2.80  47 2.80  44 2.80
  32  0.833  0.833  0.448-   4 2.79  13 2.79  16 2.79  19 2.79  25 2.79  29 2.79  31 2.79  20 2.79
                            28 2.79  45 2.80  48 2.80  41 2.80
  33  0.917  0.167  0.553-  40 2.79  46 2.79  34 2.79  36 2.79  45 2.79  37 2.79  20 2.80  17 2.80
                            24 2.80  56 2.82  49 2.82  53 2.82
  34  0.167  0.167  0.553-  37 2.79  47 2.79  33 2.79  35 2.79  46 2.79  38 2.79  17 2.80  18 2.80
                            21 2.80  53 2.82  50 2.82  54 2.82
  35  0.417  0.167  0.553-  38 2.79  48 2.79  34 2.79  36 2.79  47 2.79  39 2.79  18 2.80  19 2.80
                            22 2.80  54 2.82  51 2.82  55 2.82
  36  0.667  0.167  0.553-  39 2.79  45 2.79  33 2.79  35 2.79  40 2.79  48 2.79  19 2.80  20 2.80
                            23 2.80  55 2.82  52 2.82  56 2.82
  37  0.917  0.417  0.553-  34 2.79  44 2.79  40 2.79  38 2.79  41 2.79  33 2.79  24 2.80  21 2.80
                            28 2.80  60 2.82  53 2.82  57 2.82
  38  0.167  0.417  0.553-  35 2.79  41 2.79  39 2.79  37 2.79  34 2.79  42 2.79  21 2.80  22 2.80
                            25 2.80  57 2.82  54 2.82  58 2.82
  39  0.417  0.417  0.553-  36 2.79  42 2.79  40 2.79  38 2.79  35 2.79  43 2.79  22 2.80  23 2.80
                            26 2.80  58 2.82  55 2.82  59 2.82
  40  0.667  0.417  0.553-  33 2.79  43 2.79  39 2.79  37 2.79  36 2.79  44 2.79  23 2.80  24 2.80
                            27 2.80  59 2.82  56 2.82  60 2.82
  41  0.917  0.667  0.553-  38 2.79  48 2.79  44 2.79  42 2.79  45 2.79  37 2.79  28 2.80  25 2.80
                            32 2.80  64 2.82  61 2.82  57 2.82
  42  0.167  0.667  0.553-  39 2.79  45 2.79  43 2.79  41 2.79  38 2.79  46 2.79  25 2.80  26 2.80
                            29 2.80  61 2.82  58 2.82  62 2.82
  43  0.417  0.667  0.553-  40 2.79  46 2.79  44 2.79  42 2.79  39 2.79  47 2.79  26 2.80  27 2.80
                            30 2.80  62 2.82  59 2.82  63 2.82
  44  0.667  0.667  0.553-  37 2.79  47 2.79  43 2.79  41 2.79  40 2.79  48 2.79  27 2.80  28 2.80
                            31 2.80  63 2.82  60 2.82  64 2.82
  45  0.917  0.917  0.553-  36 2.79  42 2.79  46 2.79  48 2.79  41 2.79  33 2.79  32 2.80  29 2.80
                            20 2.80  52 2.82  49 2.82  61 2.82
  46  0.167  0.917  0.553-  33 2.79  43 2.79  45 2.79  47 2.79  42 2.79  34 2.79  29 2.80  30 2.80
                            17 2.80  49 2.82  50 2.82  62 2.82
  47  0.417  0.917  0.553-  34 2.79  44 2.79  46 2.79  48 2.79  43 2.79  35 2.79  30 2.80  31 2.80
                            18 2.80  50 2.82  51 2.82  63 2.82
  48  0.667  0.917  0.553-  35 2.79  41 2.79  45 2.79  47 2.79  36 2.79  44 2.79  31 2.80  32 2.80
                            19 2.80  51 2.82  52 2.82  64 2.82
  49  0.000  0.000  0.659-  67 1.95  56 2.79  50 2.79  52 2.79  53 2.79  62 2.79  61 2.79  46 2.82
                            33 2.82  45 2.82
  50  0.250  0.000  0.659-  65 2.03  53 2.79  49 2.79  51 2.79  54 2.79  63 2.79  62 2.79  47 2.82
                            34 2.82  46 2.82
  51  0.500  0.000  0.659-  54 2.79  52 2.79  50 2.79  55 2.79  64 2.79  63 2.79  48 2.82  35 2.82
                            47 2.82
  52  0.750  0.000  0.659-  55 2.79  51 2.79  49 2.79  56 2.79  61 2.79  64 2.79  45 2.82  36 2.82
                            48 2.82
  53  0.000  0.250  0.659-  67 2.09  60 2.79  50 2.79  54 2.79  56 2.79  49 2.79  57 2.79  34 2.82
                            37 2.82  33 2.82
  54  0.250  0.250  0.659-  57 2.79  51 2.79  55 2.79  53 2.79  50 2.79  58 2.79  35 2.82  38 2.82
                            34 2.82
  55  0.500  0.250  0.659-  52 2.79  58 2.79  56 2.79  54 2.79  51 2.79  59 2.79  36 2.82  39 2.82
                            35 2.82
  56  0.750  0.250  0.659-  67 2.04  59 2.79  49 2.79  53 2.79  55 2.79  60 2.79  52 2.79  33 2.82
                            40 2.82  36 2.82
  57  0.000  0.500  0.659-  61 2.79  64 2.79  58 2.79  54 2.79  53 2.79  60 2.79  38 2.82  41 2.82
                            37 2.82
  58  0.250  0.500  0.659-  61 2.79  62 2.79  57 2.79  55 2.79  59 2.79  54 2.79  39 2.82  42 2.82
                            38 2.82
  59  0.500  0.500  0.659-  62 2.79  63 2.79  56 2.79  58 2.79  60 2.79  55 2.79  40 2.82  43 2.82
                            39 2.82
  60  0.750  0.500  0.659-  63 2.79  64 2.79  53 2.79  59 2.79  56 2.79  57 2.79  37 2.82  44 2.82
                            40 2.82
  61  0.000  0.750  0.659-  57 2.79  58 2.79  62 2.79  64 2.79  52 2.79  49 2.79  42 2.82  41 2.82
                            45 2.82
  62  0.250  0.750  0.659-  59 2.79  58 2.79  61 2.79  63 2.79  49 2.79  50 2.79  43 2.82  42 2.82
                            46 2.82
  63  0.500  0.750  0.659-  60 2.79  59 2.79  62 2.79  64 2.79  50 2.79  51 2.79  44 2.82  43 2.82
                            47 2.82
  64  0.750  0.750  0.659-  60 2.79  57 2.79  61 2.79  63 2.79  51 2.79  52 2.79  41 2.82  44 2.82
                            48 2.82
  65  0.244  0.009  0.752-  66 1.13  50 2.03
  66  0.221  0.024  0.803-  65 1.13
  67  0.918  0.157  0.716-  49 1.95  56 2.04  53 2.09
 

IMPORTANT INFORMATION: All symmetrisations will be switched off!
NOSYMM: (Re-)initialisation of all symmetry stuff for point group C_1.

 
 
 KPOINTS: KPOINTS created by Atomic Simulation Env

Automatic generation of k-mesh.
Space group operators:
 irot       det(A)        alpha          n_x          n_y          n_z        tau_x        tau_y        tau_z
    1     1.000000     0.000000     1.000000     0.000000     0.000000     0.000000     0.000000     0.000000
 
 Subroutine IBZKPT returns following result:
 ===========================================
 
 Found      5 irreducible k-points:
 
 Following reciprocal coordinates:
            Coordinates               Weight
  0.000000  0.000000  0.000000      1.000000
  0.333333 -0.000000  0.000000      2.000000
  0.000000  0.333333  0.000000      2.000000
  0.333333  0.333333  0.000000      2.000000
 -0.333333  0.333333  0.000000      2.000000
 
 Following cartesian coordinates:
            Coordinates               Weight
  0.000000  0.000000  0.000000      1.000000
  0.029909 -0.017268  0.000000      2.000000
  0.000000  0.034536  0.000000      2.000000
  0.029909  0.017268  0.000000      2.000000
 -0.029909  0.051804  0.000000      2.000000
 
 
 Subroutine IBZKPT_HF returns following result:
 ==============================================
 
 Found      9 k-points in 1st BZ
 the following      9 k-points will be used (e.g. in the exchange kernel)
 Following reciprocal coordinates:   # in IRBZ
  0.000000  0.000000  0.000000    0.11111111   1 t-inv F
  0.333333 -0.000000  0.000000    0.11111111   2 t-inv F
  0.000000  0.333333  0.000000    0.11111111   3 t-inv F
  0.333333  0.333333  0.000000    0.11111111   4 t-inv F
 -0.333333  0.333333  0.000000    0.11111111   5 t-inv F
 -0.333333  0.000000  0.000000    0.11111111   2 t-inv T
  0.000000 -0.333333  0.000000    0.11111111   3 t-inv T
 -0.333333 -0.333333  0.000000    0.11111111   4 t-inv T
  0.333333 -0.333333  0.000000    0.11111111   5 t-inv T


--------------------------------------------------------------------------------------------------------




 Dimension of arrays:
   k-points           NKPTS =      5   k-points in BZ     NKDIM =      5   number of bands    NBANDS=    400
   number of dos      NEDOS =    301   number of ions     NIONS =     67
   non local maximal  LDIM  =      6   non local SUM 2l+1 LMDIM =     18
   total plane-waves  NPLWV = 338688
   max r-space proj   IRMAX =      1   max aug-charges    IRDMAX=   7197
   dimension x,y,z NGX =    56 NGY =   56 NGZ =  108
   dimension x,y,z NGXF=   112 NGYF=  112 NGZF=  216
   support grid    NGXF=   112 NGYF=  112 NGZF=  216
   ions per type =              64   2   1
   NGX,Y,Z   is equivalent  to a cutoff of   8.35,  8.35,  8.23 a.u.
   NGXF,Y,Z  is equivalent  to a cutoff of  16.71, 16.71, 16.45 a.u.

 SYSTEM =  Si-Diamond                              
 POSCAR =  Pd  N  O                                

 Startparameter for this run:
   NWRITE =      2    write-flag & timer
   PREC   = normal    normal or accurate (medium, high low for compatibility)
   ISTART =      0    job   : 0-new  1-cont  2-samecut
   ICHARG =      2    charge: 1-file 2-atom 10-const
   ISPIN  =      1    spin polarized calculation?
   LNONCOLLINEAR =      F non collinear calculations
   LSORBIT =      F    spin-orbit coupling
   INIWAV =      1    electr: 0-lowe 1-rand  2-diag
   LASPH  =      F    aspherical Exc in radial PAW
   METAGGA=      F    non-selfconsistent MetaGGA calc.

 Electronic Relaxation 1
   ENCUT  =  400.0 eV  29.40 Ry    5.42 a.u.  18.17 18.17 35.59*2*pi/ulx,y,z
   ENINI  =  400.0     initial cutoff
   ENAUG  =  627.1 eV  augmentation charge cutoff
   NELM   =     60;   NELMIN=  5; NELMDL= -5     # of ELM steps 
   EDIFF  = 0.1E-06   stopping-criterion for ELM
   LREAL  =      F    real-space projection
   NLSPLINE    = F    spline interpolate recip. space projectors
   LCOMPAT=      F    compatible to vasp.4.4
   GGA_COMPAT  = T    GGA compatible to vasp.4.4-vasp.4.6
   LMAXPAW     = -100 max onsite density
   LMAXMIX     =    2 max onsite mixed and CHGCAR
   VOSKOWN=      0    Vosko Wilk Nusair interpolation
   ROPT   =    0.00000   0.00000   0.00000
 Ionic relaxation
   EDIFFG = 0.1E-05   stopping-criterion for IOM
   NSW    =    841    number of steps for IOM
   NBLOCK =      1;   KBLOCK =    841    inner block; outer block 
   IBRION =      5    ionic relax: 0-MD 1-quasi-New 2-CG
   NFREE  =      2    steps in history (QN), initial steepest desc. (CG)
   ISIF   =      2    stress and relaxation
   IWAVPR =     11    prediction:  0-non 1-charg 2-wave 3-comb
   ISYM   =      0    0-nonsym 1-usesym 2-fastsym
   LCORR  =      T    Harris-Foulkes like correction to forces

   POTIM  = 0.0020    time-step for ionic-motion
   TEIN   =    0.0    initial temperature
   TEBEG  =    0.0;   TEEND  =   0.0 temperature during run
   SMASS  =  -3.00    Nose mass-parameter (am)
   estimated Nose-frequenzy (Omega)   =  0.10E-29 period in steps =****** mass=  -0.284E-26a.u.
   SCALEE = 1.0000    scale energy and forces
   NPACO  =    256;   APACO  = 16.0  distance and # of slots for P.C.
   PSTRESS=    0.0 pullay stress

  Mass of Ions in am
   POMASS = 106.42 14.00 16.00
  Ionic Valenz
   ZVAL   =  10.00  5.00  6.00
  Atomic Wigner-Seitz radii
   RWIGS  =  -1.00 -1.00 -1.00
  virtual crystal weights 
   VCA    =   1.00  1.00  1.00
   NELECT =     656.0000    total number of electrons
   NUPDOWN=      -1.0000    fix difference up-down

 DOS related values:
   EMIN   =  10.00;   EMAX   =-10.00  energy-range for DOS
   EFERMI =   0.00
   ISMEAR =     1;   SIGMA  =   0.20  broadening in eV -4-tet -1-fermi 0-gaus

 Electronic relaxation 2 (details)
   IALGO  =     38    algorithm
   LDIAG  =      T    sub-space diagonalisation (order eigenvalues)
   LSUBROT=      F    optimize rotation matrix (better conditioning)
   TURBO    =      0    0=normal 1=particle mesh
   IRESTART =      0    0=no restart 2=restart with 2 vectors
   NREBOOT  =      0    no. of reboots
   NMIN     =      0    reboot dimension
   EREF     =   0.00    reference energy to select bands
   IMIX   =      4    mixing-type and parameters
     AMIX     =   0.40;   BMIX     =  1.00
     AMIX_MAG =   1.60;   BMIX_MAG =  1.00
     AMIN     =   0.10
     WC   =   100.;   INIMIX=   1;  MIXPRE=   1;  MAXMIX= -45

 Intra band minimization:
   WEIMIN = 0.0010     energy-eigenvalue tresh-hold
   EBREAK =  0.62E-10  absolut break condition
   DEPER  =   0.30     relativ break condition  

   TIME   =   0.40     timestep for ELM

  volume/ion in A,a.u.               =      35.04       236.46
  Fermi-wavevector in a.u.,A,eV,Ry     =   1.070281  2.022538 15.585492  1.145501
  Thomas-Fermi vector in A             =   2.205986
 
 Write flags
   LWAVE        =      F    write WAVECAR
   LDOWNSAMPLE  =      F    k-point downsampling of WAVECAR
   LCHARG       =      F    write CHGCAR
   LVTOT        =      F    write LOCPOT, total local potential
   LVHAR        =      F    write LOCPOT, Hartree potential only
   LELF         =      F    write electronic localiz. function (ELF)
   LORBIT       =      0    0 simple, 1 ext, 2 COOP (PROOUT), +10 PAW based schemes


 Dipole corrections
   LMONO  =      F    monopole corrections only (constant potential shift)
   LDIPOL =      F    correct potential (dipole corrections)
   IDIPOL =      0    1-x, 2-y, 3-z, 4-all directions 
   EPSILON=  1.0000000 bulk dielectric constant

 Exchange correlation treatment:
   GGA     =    --    GGA type
   LEXCH   =     8    internal setting for exchange type
   VOSKOWN=      0    Vosko Wilk Nusair interpolation
   LHFCALC =     F    Hartree Fock is set to
   LHFONE  =     F    Hartree Fock one center treatment
   AEXX    =    0.0000 exact exchange contribution

 Linear response parameters
   LEPSILON=     F    determine dielectric tensor
   LRPA    =     F    only Hartree local field effects (RPA)
   LNABLA  =     F    use nabla operator in PAW spheres
   LVEL    =     F    velocity operator in full k-point grid
   LINTERFAST=   F  fast interpolation
   KINTER  =     0    interpolate to denser k-point grid
   CSHIFT  =0.1000    complex shift for real part using Kramers Kronig
   OMEGAMAX=  -1.0    maximum frequency
   DEG_THRESHOLD= 0.2000000E-02 threshold for treating states as degnerate
   RTIME   =   -0.100 relaxation time in fs
  (WPLASMAI=    0.000 imaginary part of plasma frequency in eV, 0.658/RTIME)
   DFIELD  = 0.0000000 0.0000000 0.0000000 field for delta impulse in time
 
 Orbital magnetization related:
   ORBITALMAG=     F  switch on orbital magnetization
   LCHIMAG   =     F  perturbation theory with respect to B field
   DQ        =  0.001000  dq finite difference perturbation B field
   LLRAUG    =     F  two centre corrections for induced B field



--------------------------------------------------------------------------------------------------------


 finite differences
   using selective dynamics as specified on POSCAR
 charge density and potential will be updated during run
 non-spin polarized calculation
 Variant of blocked Davidson
 Davidson routine will perform the subspace rotation
 perform sub-space diagonalisation
    after iterative eigenvector-optimisation
 modified Broyden-mixing scheme, WC =      100.0
 initial mixing is a Kerker type mixing with AMIX =  0.4000 and BMIX =      1.0000
 Hartree-type preconditioning will be used
 using additional bands           72
 reciprocal scheme for non local part
 use partial core corrections
 calculate Harris-corrections to forces 
   (improved forces if not selfconsistent)
 use gradient corrections 
 use of overlap-Matrix (Vanderbilt PP)
 Methfessel and Paxton  Order N= 1 SIGMA  =   0.20


--------------------------------------------------------------------------------------------------------


  energy-cutoff  :      400.00
  volume of cell :     2347.66
      direct lattice vectors                 reciprocal lattice vectors
    11.144911900  0.000000000  0.000000000     0.089727044 -0.051803933  0.000000000
     5.572455950  9.651776828  0.000000000     0.000000000  0.103607866  0.000000000
     0.000000000  0.000000000 21.824836846     0.000000000  0.000000000  0.045819357

  length of vectors
    11.144911900 11.144911900 21.824836846     0.103607866  0.103607866  0.045819357


 
 k-points in units of 2pi/SCALE and weight: KPOINTS created by Atomic Simulation Env
   0.00000000  0.00000000  0.00000000       0.111
   0.02990901 -0.01726798  0.00000000       0.222
   0.00000000  0.03453596  0.00000000       0.222
   0.02990901  0.01726798  0.00000000       0.222
  -0.02990901  0.05180393  0.00000000       0.222
 
 k-points in reciprocal lattice and weights: KPOINTS created by Atomic Simulation Env
   0.00000000  0.00000000  0.00000000       0.111
   0.33333333 -0.00000000  0.00000000       0.222
   0.00000000  0.33333333  0.00000000       0.222
   0.33333333  0.33333333  0.00000000       0.222
  -0.33333333  0.33333333  0.00000000       0.222
 
 position of ions in fractional coordinates (direct lattice) 
   0.00000000  0.00000000  0.34364518
   0.25000000  0.00000000  0.34364518
   0.50000000  0.00000000  0.34364518
   0.75000000  0.00000000  0.34364518
   0.00000000  0.25000000  0.34364518
   0.25000000  0.25000000  0.34364518
   0.50000000  0.25000000  0.34364518
   0.75000000  0.25000000  0.34364518
   0.00000000  0.50000000  0.34364518
   0.25000000  0.50000000  0.34364518
   0.50000000  0.50000000  0.34364518
   0.75000000  0.50000000  0.34364518
   0.00000000  0.75000000  0.34364518
   0.25000000  0.75000000  0.34364518
   0.50000000  0.75000000  0.34364518
   0.75000000  0.75000000  0.34364518
   0.08333333  0.08333333  0.44788173
   0.33333333  0.08333333  0.44788173
   0.58333333  0.08333333  0.44788173
   0.83333333  0.08333333  0.44788173
   0.08333333  0.33333333  0.44788173
   0.33333333  0.33333333  0.44788173
   0.58333333  0.33333333  0.44788173
   0.83333333  0.33333333  0.44788173
   0.08333333  0.58333333  0.44788173
   0.33333333  0.58333333  0.44788173
   0.58333333  0.58333333  0.44788173
   0.83333333  0.58333333  0.44788173
   0.08333333  0.83333333  0.44788173
   0.33333333  0.83333333  0.44788173
   0.58333333  0.83333333  0.44788173
   0.83333333  0.83333333  0.44788173
   0.91666667  0.16666667  0.55312823
   0.16666667  0.16666667  0.55312823
   0.41666667  0.16666667  0.55312823
   0.66666667  0.16666667  0.55312823
   0.91666667  0.41666667  0.55312823
   0.16666667  0.41666667  0.55312823
   0.41666667  0.41666667  0.55312823
   0.66666667  0.41666667  0.55312823
   0.91666667  0.66666667  0.55312823
   0.16666667  0.66666667  0.55312823
   0.41666667  0.66666667  0.55312823
   0.66666667  0.66666667  0.55312823
   0.91666667  0.91666667  0.55312823
   0.16666667  0.91666667  0.55312823
   0.41666667  0.91666667  0.55312823
   0.66666667  0.91666667  0.55312823
   0.00000000  0.00000000  0.65939211
   0.25000000  0.00000000  0.65939211
   0.50000000  0.00000000  0.65939211
   0.75000000  0.00000000  0.65939211
   0.00000000  0.25000000  0.65939211
   0.25000000  0.25000000  0.65939211
   0.50000000  0.25000000  0.65939211
   0.75000000  0.25000000  0.65939211
   0.00000000  0.50000000  0.65939211
   0.25000000  0.50000000  0.65939211
   0.50000000  0.50000000  0.65939211
   0.75000000  0.50000000  0.65939211
   0.00000000  0.75000000  0.65939211
   0.25000000  0.75000000  0.65939211
   0.50000000  0.75000000  0.65939211
   0.75000000  0.75000000  0.65939211
   0.24372665  0.00887062  0.75227735
   0.22051012  0.02428829  0.80280027
   0.91803388  0.15679248  0.71556713
 
 position of ions in cartesian coordinates  (Angst):
   0.00000000  0.00000000  7.50000000
   2.78622797  0.00000000  7.50000000
   5.57245595  0.00000000  7.50000000
   8.35868392  0.00000000  7.50000000
   1.39311399  2.41294421  7.50000000
   4.17934196  2.41294421  7.50000000
   6.96556994  2.41294421  7.50000000
   9.75179791  2.41294421  7.50000000
   2.78622797  4.82588841  7.50000000
   5.57245595  4.82588841  7.50000000
   8.35868392  4.82588841  7.50000000
  11.14491190  4.82588841  7.50000000
   4.17934196  7.23883262  7.50000000
   6.96556994  7.23883262  7.50000000
   9.75179791  7.23883262  7.50000000
  12.53802589  7.23883262  7.50000000
   1.39311399  0.80431474  9.77494562
   4.17934196  0.80431474  9.77494562
   6.96556994  0.80431474  9.77494562
   9.75179791  0.80431474  9.77494562
   2.78622797  3.21725894  9.77494562
   5.57245595  3.21725894  9.77494562
   8.35868392  3.21725894  9.77494562
  11.14491190  3.21725894  9.77494562
   4.17934196  5.63020315  9.77494562
   6.96556994  5.63020315  9.77494562
   9.75179791  5.63020315  9.77494562
  12.53802589  5.63020315  9.77494562
   5.57245595  8.04314736  9.77494562
   8.35868392  8.04314736  9.77494562
  11.14491190  8.04314736  9.77494562
  13.93113987  8.04314736  9.77494562
  11.14491190  1.60862947 12.07193337
   2.78622797  1.60862947 12.07193337
   5.57245595  1.60862947 12.07193337
   8.35868392  1.60862947 12.07193337
  12.53802589  4.02157368 12.07193337
   4.17934196  4.02157368 12.07193337
   6.96556994  4.02157368 12.07193337
   9.75179791  4.02157368 12.07193337
  13.93113987  6.43451789 12.07193337
   5.57245595  6.43451789 12.07193337
   8.35868392  6.43451789 12.07193337
  11.14491190  6.43451789 12.07193337
  15.32425386  8.84746209 12.07193337
   6.96556994  8.84746209 12.07193337
   9.75179791  8.84746209 12.07193337
  12.53802589  8.84746209 12.07193337
   0.00000000  0.00000000 14.39112528
   2.78622797  0.00000000 14.39112528
   5.57245595  0.00000000 14.39112528
   8.35868392  0.00000000 14.39112528
   1.39311399  2.41294421 14.39112528
   4.17934196  2.41294421 14.39112528
   6.96556994  2.41294421 14.39112528
   9.75179791  2.41294421 14.39112528
   2.78622797  4.82588841 14.39112528
   5.57245595  4.82588841 14.39112528
   8.35868392  4.82588841 14.39112528
  11.14491190  4.82588841 14.39112528
   4.17934196  7.23883262 14.39112528
   6.96556994  7.23883262 14.39112528
   9.75179791  7.23883262 14.39112528
  12.53802589  7.23883262 14.39112528
   2.76574320  0.08561722 16.41833048
   2.59291126  0.23442515 17.52098498
  11.10512592  1.51332605 15.61713582
 


--------------------------------------------------------------------------------------------------------


 k-point  1 :   0.0000 0.0000 0.0000  plane waves:   42623
 k-point  2 :   0.3333-0.0000 0.0000  plane waves:   42642
 k-point  3 :   0.0000 0.3333 0.0000  plane waves:   42642
 k-point  4 :   0.3333 0.3333 0.0000  plane waves:   42642
 k-point  5 :  -0.3333 0.3333 0.0000  plane waves:   42738

 maximum and minimum number of plane-waves per node :      2720     2618

 maximum number of plane-waves:     42738
 maximum index in each direction: 
   IXMAX=   18   IYMAX=   18   IZMAX=   35
   IXMIN=  -18   IYMIN=  -18   IZMIN=  -35


 parallel 3D FFT for wavefunctions:
    minimum data exchange during FFTs selected (reduces bandwidth)
 parallel 3D FFT for charge:
    minimum data exchange during FFTs selected (reduces bandwidth)


 total amount of memory used by VASP MPI-rank0    53833. kBytes
=======================================================================

   base      :      30000. kBytes
   nonl-proj :       8635. kBytes
   fftplans  :       1583. kBytes
   grid      :       2530. kBytes
   one-center:         77. kBytes
   wavefun   :      11008. kBytes
 
     INWAV:  cpu time    0.0000: real time    0.0000
 Broyden mixing: mesh for mixing (old mesh)
   NGX = 37   NGY = 37   NGZ = 71
  (NGX  =112   NGY  =112   NGZ  =216)
  gives a total of  97199 points

 initial charge density was supplied:
 charge density of overlapping atoms calculated
 number of electron     656.0000000 magnetization 
 keeping initial charge density in first step


--------------------------------------------------------------------------------------------------------


 Maximum index for augmentation-charges          394 (set IRDMAX)


--------------------------------------------------------------------------------------------------------


 First call to EWALD:  gamma=   0.133
 Maximum number of real-space cells 4x 4x 2
 Maximum number of reciprocal cells 2x 2x 4

    FEWALD:  cpu time    0.0028: real time    0.0029


--------------------------------------- Iteration      1(   1)  ---------------------------------------


    POTLOK:  cpu time    0.0192: real time    0.0384
    SETDIJ:  cpu time    0.0076: real time    0.0084
     EDDAV:  cpu time    5.8019: real time    5.8070
       DOS:  cpu time    0.0022: real time    0.0025
    --------------------------------------------
      LOOP:  cpu time    5.8308: real time    5.8562

 eigenvalue-minimisations  :  4072
 total energy-change (2. order) : 0.3816495E+04  (-0.2667964E+05)
 number of electron     656.0000000 magnetization 
 augmentation part      656.0000000 magnetization 

 Free energy of the ion-electron system (eV)
  ---------------------------------------------------
  alpha Z        PSCENC =      1184.06556306
  Ewald energy   TEWEN  =    165109.67962105
  -Hartree energ DENC   =   -220347.07830426
  -exchange      EXHF   =         0.00000000
  -V(xc)+E(xc)   XCENC  =     -1822.65352596
  PAW double counting   =     52387.66707066   -48409.62114609
  entropy T*S    EENTRO =        -0.01848945
  eigenvalues    EBANDS =      2929.63163499
  atomic energy  EATOM  =     52784.82232594
  Solvation  Ediel_sol  =         0.00000000
  ---------------------------------------------------
  free energy    TOTEN  =      3816.49474993 eV

  energy without entropy =     3816.51323938  energy(sigma->0) =     3816.50091308


--------------------------------------------------------------------------------------------------------




--------------------------------------- Iteration      1(   2)  ---------------------------------------


     EDDAV:  cpu time    6.1896: real time    6.1897
       DOS:  cpu time    0.0015: real time    0.0015
    --------------------------------------------
      LOOP:  cpu time    6.1910: real time    6.1911

 eigenvalue-minimisations  :  4464
 total energy-change (2. order) :-0.3941446E+04  (-0.3690851E+04)
 number of electron     656.0000000 magnetization 
 augmentation part      656.0000000 magnetization 

 Free energy of the ion-electron system (eV)
  ---------------------------------------------------
  alpha Z        PSCENC =      1184.06556306
  Ewald energy   TEWEN  =    165109.67962105
  -Hartree energ DENC   =   -220347.07830426
  -exchange      EXHF   =         0.00000000
  -V(xc)+E(xc)   XCENC  =     -1822.65352596
  PAW double counting   =     52387.66707066   -48409.62114609
  entropy T*S    EENTRO =         0.04277818
  eigenvalues    EBANDS =     -1011.87589883
  atomic energy  EATOM  =     52784.82232594
  Solvation  Ediel_sol  =         0.00000000
  ---------------------------------------------------
  free energy    TOTEN  =      -124.95151626 eV

  energy without entropy =     -124.99429444  energy(sigma->0) =     -124.96577565


--------------------------------------------------------------------------------------------------------




--------------------------------------- Iteration      1(   3)  ---------------------------------------


     EDDAV:  cpu time    6.2363: real time    6.2359
       DOS:  cpu time    0.0015: real time    0.0015
    --------------------------------------------
      LOOP:  cpu time    6.2378: real time    6.2374

 eigenvalue-minimisations  :  4480
 total energy-change (2. order) :-0.2235846E+03  (-0.2003500E+03)
 number of electron     656.0000000 magnetization 
 augmentation part      656.0000000 magnetization 

 Free energy of the ion-electron system (eV)
  ---------------------------------------------------
  alpha Z        PSCENC =      1184.06556306
  Ewald energy   TEWEN  =    165109.67962105
  -Hartree energ DENC   =   -220347.07830426
  -exchange      EXHF   =         0.00000000
  -V(xc)+E(xc)   XCENC  =     -1822.65352596
  PAW double counting   =     52387.66707066   -48409.62114609
  entropy T*S    EENTRO =        -0.07329243
  eigenvalues    EBANDS =     -1235.34442760
  atomic energy  EATOM  =     52784.82232594
  Solvation  Ediel_sol  =         0.00000000
  ---------------------------------------------------
  free energy    TOTEN  =      -348.53611564 eV

  energy without entropy =     -348.46282321  energy(sigma->0) =     -348.51168483


--------------------------------------------------------------------------------------------------------




--------------------------------------- Iteration      1(   4)  ---------------------------------------


     EDDAV:  cpu time    6.4583: real time    6.4602
       DOS:  cpu time    0.0014: real time    0.0014
    --------------------------------------------
      LOOP:  cpu time    6.4597: real time    6.4616

 eigenvalue-minimisations  :  4712
 total energy-change (2. order) :-0.7851998E+01  (-0.7562076E+01)
 number of electron     656.0000000 magnetization 
 augmentation part      656.0000000 magnetization 

 Free energy of the ion-electron system (eV)
  ---------------------------------------------------
  alpha Z        PSCENC =      1184.06556306
  Ewald energy   TEWEN  =    165109.67962105
  -Hartree energ DENC   =   -220347.07830426
  -exchange      EXHF   =         0.00000000
  -V(xc)+E(xc)   XCENC  =     -1822.65352596
  PAW double counting   =     52387.66707066   -48409.62114609
  entropy T*S    EENTRO =        -0.09846546
  eigenvalues    EBANDS =     -1243.17125292
  atomic energy  EATOM  =     52784.82232594
  Solvation  Ediel_sol  =         0.00000000
  ---------------------------------------------------
  free energy    TOTEN  =      -356.38811399 eV

  energy without entropy =     -356.28964853  energy(sigma->0) =     -356.35529217


--------------------------------------------------------------------------------------------------------




--------------------------------------- Iteration      1(   5)  ---------------------------------------


     EDDAV:  cpu time    7.4170: real time    7.4756
       DOS:  cpu time    0.0015: real time    0.0015
    CHARGE:  cpu time    0.1008: real time    0.1012
    MIXING:  cpu time    0.0040: real time    0.0058
    --------------------------------------------
      LOOP:  cpu time    7.5233: real time    7.5840

 eigenvalue-minimisations  :  4688
 total energy-change (2. order) :-0.2544741E+00  (-0.2536470E+00)
 number of electron     655.9999636 magnetization 
 augmentation part      259.5659337 magnetization 

 Broyden mixing:
  rms(total) = 0.51406E+01    rms(broyden)= 0.51402E+01
  rms(prec ) = 0.52781E+01
  weight for this iteration     100.00

 Free energy of the ion-electron system (eV)
  ---------------------------------------------------
  alpha Z        PSCENC =      1184.06556306
  Ewald energy   TEWEN  =    165109.67962105
  -Hartree energ DENC   =   -220347.07830426
  -exchange      EXHF   =         0.00000000
  -V(xc)+E(xc)   XCENC  =     -1822.65352596
  PAW double counting   =     52387.66707066   -48409.62114609
  entropy T*S    EENTRO =        -0.09913625
  eigenvalues    EBANDS =     -1243.42505622
  atomic energy  EATOM  =     52784.82232594
  Solvation  Ediel_sol  =         0.00000000
  ---------------------------------------------------
  free energy    TOTEN  =      -356.64258808 eV

  energy without entropy =     -356.54345183  energy(sigma->0) =     -356.60954266


--------------------------------------------------------------------------------------------------------




--------------------------------------- Iteration      1(   6)  ---------------------------------------


    POTLOK:  cpu time    0.0190: real time    0.0190
    SETDIJ:  cpu time    0.0037: real time    0.0037
     EDDAV:  cpu time    5.9477: real time    5.9475
       DOS:  cpu time    0.0015: real time    0.0015
    CHARGE:  cpu time    0.1017: real time    0.1017
    MIXING:  cpu time    0.0031: real time    0.0031
    --------------------------------------------
      LOOP:  cpu time    6.0767: real time    6.0765

 eigenvalue-minimisations  :  4240
 total energy-change (2. order) : 0.9637258E+01  (-0.6703835E+01)
 number of electron     655.9999587 magnetization 
 augmentation part      269.7690687 magnetization 

 Broyden mixing:
  rms(total) = 0.39569E+01    rms(broyden)= 0.39566E+01
  rms(prec ) = 0.48007E+01
  weight for this iteration     100.00

 eigenvalues of (default mixing * dielectric matrix)
  average eigenvalue GAMMA=   0.8266
  0.8266

 Free energy of the ion-electron system (eV)
  ---------------------------------------------------
  alpha Z        PSCENC =      1184.06556306
  Ewald energy   TEWEN  =    165109.67962105
  -Hartree energ DENC   =   -220071.21592138
  -exchange      EXHF   =         0.00000000
  -V(xc)+E(xc)   XCENC  =     -1834.16061868
  PAW double counting   =     55855.91968203   -51952.70634287
  entropy T*S    EENTRO =        -0.29138929
  eigenvalues    EBANDS =     -1423.11825003
  atomic energy  EATOM  =     52784.82232594
  Solvation  Ediel_sol  =         0.00000000
  ---------------------------------------------------
  free energy    TOTEN  =      -347.00533018 eV

  energy without entropy =     -346.71394089  energy(sigma->0) =     -346.90820042


--------------------------------------------------------------------------------------------------------




--------------------------------------- Iteration      1(   7)  ---------------------------------------


    POTLOK:  cpu time    0.0173: real time    0.0173
    SETDIJ:  cpu time    0.0037: real time    0.0037
     EDDAV:  cpu time    6.4210: real time    6.4207
       DOS:  cpu time    0.0016: real time    0.0016
    CHARGE:  cpu time    0.1004: real time    0.1004
    MIXING:  cpu time    0.0008: real time    0.0008
    --------------------------------------------
      LOOP:  cpu time    6.5448: real time    6.5446

 eigenvalue-minimisations  :  4656
 total energy-change (2. order) :-0.7464334E+02  (-0.4577827E+01)
 number of electron     655.9999736 magnetization 
 augmentation part      265.2557724 magnetization 

 Broyden mixing:
  rms(total) = 0.65135E+01    rms(broyden)= 0.65130E+01
  rms(prec ) = 0.10355E+02
  weight for this iteration     100.00

 eigenvalues of (default mixing * dielectric matrix)
  average eigenvalue GAMMA=   0.7392
  1.3016  0.1769

 Free energy of the ion-electron system (eV)
  ---------------------------------------------------
  alpha Z        PSCENC =      1184.06556306
  Ewald energy   TEWEN  =    165109.67962105
  -Hartree energ DENC   =   -220130.55999534
  -exchange      EXHF   =         0.00000000
  -V(xc)+E(xc)   XCENC  =     -1834.74465012
  PAW double counting   =     57151.05636443   -53264.68964335
  entropy T*S    EENTRO =         0.11468610
  eigenvalues    EBANDS =     -1421.39294374
  atomic energy  EATOM  =     52784.82232594
  Solvation  Ediel_sol  =         0.00000000
  ---------------------------------------------------
  free energy    TOTEN  =      -421.64867197 eV

  energy without entropy =     -421.76335807  energy(sigma->0) =     -421.68690067


--------------------------------------------------------------------------------------------------------




--------------------------------------- Iteration      1(   8)  ---------------------------------------


    POTLOK:  cpu time    0.0178: real time    0.0178
    SETDIJ:  cpu time    0.0037: real time    0.0037
     EDDAV:  cpu time    6.1913: real time    6.1909
       DOS:  cpu time    0.0015: real time    0.0015
    CHARGE:  cpu time    0.0994: real time    0.0994
    MIXING:  cpu time    0.0011: real time    0.0011
    --------------------------------------------
      LOOP:  cpu time    6.3147: real time    6.3143

 eigenvalue-minimisations  :  4456
 total energy-change (2. order) : 0.5990750E+02  (-0.4511063E+01)
 number of electron     655.9999630 magnetization 
 augmentation part      270.4350422 magnetization 

 Broyden mixing:
  rms(total) = 0.44401E+01    rms(broyden)= 0.44397E+01
  rms(prec ) = 0.55814E+01
  weight for this iteration     100.00

 eigenvalues of (default mixing * dielectric matrix)
  average eigenvalue GAMMA=   0.6643
  1.5444  0.2892  0.1592

 Free energy of the ion-electron system (eV)
  ---------------------------------------------------
  alpha Z        PSCENC =      1184.06556306
  Ewald energy   TEWEN  =    165109.67962105
  -Hartree energ DENC   =   -220221.51872188
  -exchange      EXHF   =         0.00000000
  -V(xc)+E(xc)   XCENC  =     -1837.11495614
  PAW double counting   =     58746.59853970   -54886.20708956
  entropy T*S    EENTRO =        -0.05306159
  eigenvalues    EBANDS =     -1242.01339524
  atomic energy  EATOM  =     52784.82232594
  Solvation  Ediel_sol  =         0.00000000
  ---------------------------------------------------
  free energy    TOTEN  =      -361.74117466 eV

  energy without entropy =     -361.68811307  energy(sigma->0) =     -361.72348747


--------------------------------------------------------------------------------------------------------




--------------------------------------- Iteration      1(   9)  ---------------------------------------


    POTLOK:  cpu time    0.0186: real time    0.0263
    SETDIJ:  cpu time    0.0038: real time    0.0038
     EDDAV:  cpu time    5.9888: real time    5.9888
       DOS:  cpu time    0.0014: real time    0.0014
    CHARGE:  cpu time    0.0996: real time    0.0996
    MIXING:  cpu time    0.0012: real time    0.0012
    --------------------------------------------
      LOOP:  cpu time    6.1134: real time    6.1211

 eigenvalue-minimisations  :  4256
 total energy-change (2. order) : 0.1673955E+02  (-0.3886467E+01)
 number of electron     655.9999600 magnetization 
 augmentation part      271.4152042 magnetization 

 Broyden mixing:
  rms(total) = 0.23975E+01    rms(broyden)= 0.23968E+01
  rms(prec ) = 0.29004E+01
  weight for this iteration     100.00

 eigenvalues of (default mixing * dielectric matrix)
  average eigenvalue GAMMA=   0.6891
  1.8437  0.5596  0.1766  0.1766

 Free energy of the ion-electron system (eV)
  ---------------------------------------------------
  alpha Z        PSCENC =      1184.06556306
  Ewald energy   TEWEN  =    165109.67962105
  -Hartree energ DENC   =   -220091.65926700
  -exchange      EXHF   =         0.00000000
  -V(xc)+E(xc)   XCENC  =     -1836.84108710
  PAW double counting   =     59627.43241882   -55776.16342934
  entropy T*S    EENTRO =        -0.22724974
  eigenvalues    EBANDS =     -1346.11051844
  atomic energy  EATOM  =     52784.82232594
  Solvation  Ediel_sol  =         0.00000000
  ---------------------------------------------------
  free energy    TOTEN  =      -345.00162277 eV

  energy without entropy =     -344.77437303  energy(sigma->0) =     -344.92587286


--------------------------------------------------------------------------------------------------------




--------------------------------------- Iteration      1(  10)  ---------------------------------------


    POTLOK:  cpu time    0.0178: real time    0.0178
    SETDIJ:  cpu time    0.0038: real time    0.0038
     EDDAV:  cpu time    5.8650: real time    5.8648
       DOS:  cpu time    0.0015: real time    0.0015
    CHARGE:  cpu time    0.0980: real time    0.0980
    MIXING:  cpu time    0.0010: real time    0.0010
    --------------------------------------------
      LOOP:  cpu time    5.9871: real time    5.9869

 eigenvalue-minimisations  :  4136
 total energy-change (2. order) : 0.2266873E+01  (-0.1587370E+01)
 number of electron     655.9999627 magnetization 
 augmentation part      270.8132900 magnetization 

 Broyden mixing:
  rms(total) = 0.20125E+01    rms(broyden)= 0.20121E+01
  rms(prec ) = 0.24016E+01
  weight for this iteration     100.00

 eigenvalues of (default mixing * dielectric matrix)
  average eigenvalue GAMMA=   0.6606
  1.9623  0.6977  0.2792  0.1818  0.1818

 Free energy of the ion-electron system (eV)
  ---------------------------------------------------
  alpha Z        PSCENC =      1184.06556306
  Ewald energy   TEWEN  =    165109.67962105
  -Hartree energ DENC   =   -220191.05139109
  -exchange      EXHF   =         0.00000000
  -V(xc)+E(xc)   XCENC  =     -1836.74597376
  PAW double counting   =     60758.11206764   -56916.90195392
  entropy T*S    EENTRO =        -0.28006835
  eigenvalues    EBANDS =     -1234.43494012
  atomic energy  EATOM  =     52784.82232594
  Solvation  Ediel_sol  =         0.00000000
  ---------------------------------------------------
  free energy    TOTEN  =      -342.73474958 eV

  energy without entropy =     -342.45468123  energy(sigma->0) =     -342.64139346


--------------------------------------------------------------------------------------------------------




--------------------------------------- Iteration      1(  11)  ---------------------------------------


    POTLOK:  cpu time    0.0177: real time    0.0177
    SETDIJ:  cpu time    0.0039: real time    0.0039
     EDDAV:  cpu time    5.9040: real time    5.9035
       DOS:  cpu time    0.0015: real time    0.0015
    CHARGE:  cpu time    0.1004: real time    0.1004
    MIXING:  cpu time    0.0009: real time    0.0009
    --------------------------------------------
      LOOP:  cpu time    6.0283: real time    6.0279

 eigenvalue-minimisations  :  4192
 total energy-change (2. order) : 0.1991698E+01  (-0.9145932E+00)
 number of electron     655.9999617 magnetization 
 augmentation part      270.9371350 magnetization 

 Broyden mixing:
  rms(total) = 0.16102E+01    rms(broyden)= 0.16098E+01
  rms(prec ) = 0.19491E+01
  weight for this iteration     100.00

 eigenvalues of (default mixing * dielectric matrix)
  average eigenvalue GAMMA=   0.6393
  2.0423  0.7651  0.4850  0.1829  0.1829  0.1776

 Free energy of the ion-electron system (eV)
  ---------------------------------------------------
  alpha Z        PSCENC =      1184.06556306
  Ewald energy   TEWEN  =    165109.67962105
  -Hartree energ DENC   =   -220179.07499518
  -exchange      EXHF   =         0.00000000
  -V(xc)+E(xc)   XCENC  =     -1836.11512018
  PAW double counting   =     61146.79825796   -57307.73917822
  entropy T*S    EENTRO =        -0.18381170
  eigenvalues    EBANDS =     -1242.99571393
  atomic energy  EATOM  =     52784.82232594
  Solvation  Ediel_sol  =         0.00000000
  ---------------------------------------------------
  free energy    TOTEN  =      -340.74305122 eV

  energy without entropy =     -340.55923952  energy(sigma->0) =     -340.68178065


--------------------------------------------------------------------------------------------------------




--------------------------------------- Iteration      1(  12)  ---------------------------------------


    POTLOK:  cpu time    0.0175: real time    0.0175
    SETDIJ:  cpu time    0.0037: real time    0.0037
     EDDAV:  cpu time    5.8949: real time    5.8945
       DOS:  cpu time    0.0014: real time    0.0014
    CHARGE:  cpu time    0.1000: real time    0.1000
    MIXING:  cpu time    0.0009: real time    0.0009
    --------------------------------------------
      LOOP:  cpu time    6.0184: real time    6.0180

 eigenvalue-minimisations  :  4152
 total energy-change (2. order) : 0.1042074E+01  (-0.3757899E+00)
 number of electron     655.9999629 magnetization 
 augmentation part      270.4442972 magnetization 

 Broyden mixing:
  rms(total) = 0.11443E+01    rms(broyden)= 0.11441E+01
  rms(prec ) = 0.13307E+01
  weight for this iteration     100.00

 eigenvalues of (default mixing * dielectric matrix)
  average eigenvalue GAMMA=   0.6035
  2.0522  0.7005  0.7005  0.2155  0.2155  0.1702  0.1702

 Free energy of the ion-electron system (eV)
  ---------------------------------------------------
  alpha Z        PSCENC =      1184.06556306
  Ewald energy   TEWEN  =    165109.67962105
  -Hartree energ DENC   =   -220227.33122316
  -exchange      EXHF   =         0.00000000
  -V(xc)+E(xc)   XCENC  =     -1835.83664636
  PAW double counting   =     61411.88717660   -57573.83777492
  entropy T*S    EENTRO =        -0.22949018
  eigenvalues    EBANDS =     -1192.92052971
  atomic energy  EATOM  =     52784.82232594
  Solvation  Ediel_sol  =         0.00000000
  ---------------------------------------------------
  free energy    TOTEN  =      -339.70097768 eV

  energy without entropy =     -339.47148750  energy(sigma->0) =     -339.62448095


--------------------------------------------------------------------------------------------------------




--------------------------------------- Iteration      1(  13)  ---------------------------------------


    POTLOK:  cpu time    0.0176: real time    0.0176
    SETDIJ:  cpu time    0.0038: real time    0.0038
     EDDAV:  cpu time    5.8632: real time    5.8628
       DOS:  cpu time    0.0015: real time    0.0015
    CHARGE:  cpu time    0.1006: real time    0.1006
    MIXING:  cpu time    0.0012: real time    0.0012
    --------------------------------------------
      LOOP:  cpu time    5.9879: real time    5.9875

 eigenvalue-minimisations  :  4152
 total energy-change (2. order) : 0.6845906E+00  (-0.1900828E+00)
 number of electron     655.9999631 magnetization 
 augmentation part      270.2709001 magnetization 

 Broyden mixing:
  rms(total) = 0.77706E+00    rms(broyden)= 0.77691E+00
  rms(prec ) = 0.94327E+00
  weight for this iteration     100.00

 eigenvalues of (default mixing * dielectric matrix)
  average eigenvalue GAMMA=   0.5925
  2.0516  0.7919  0.7919  0.3035  0.3035  0.1756  0.1756  0.1460

 Free energy of the ion-electron system (eV)
  ---------------------------------------------------
  alpha Z        PSCENC =      1184.06556306
  Ewald energy   TEWEN  =    165109.67962105
  -Hartree energ DENC   =   -220245.49303320
  -exchange      EXHF   =         0.00000000
  -V(xc)+E(xc)   XCENC  =     -1835.79852914
  PAW double counting   =     61469.33733563   -57631.31005509
  entropy T*S    EENTRO =        -0.24563684
  eigenvalues    EBANDS =     -1174.07397845
  atomic energy  EATOM  =     52784.82232594
  Solvation  Ediel_sol  =         0.00000000
  ---------------------------------------------------
  free energy    TOTEN  =      -339.01638705 eV

  energy without entropy =     -338.77075021  energy(sigma->0) =     -338.93450811


--------------------------------------------------------------------------------------------------------




--------------------------------------- Iteration      1(  14)  ---------------------------------------


    POTLOK:  cpu time    0.0177: real time    0.0177
    SETDIJ:  cpu time    0.0037: real time    0.0037
     EDDAV:  cpu time    5.8541: real time    5.8542
       DOS:  cpu time    0.0016: real time    0.0016
    CHARGE:  cpu time    0.0994: real time    0.0994
    MIXING:  cpu time    0.0010: real time    0.0010
    --------------------------------------------
      LOOP:  cpu time    5.9775: real time    5.9776

 eigenvalue-minimisations  :  4128
 total energy-change (2. order) : 0.4206507E-01  (-0.1252272E+00)
 number of electron     655.9999626 magnetization 
 augmentation part      270.3071468 magnetization 

 Broyden mixing:
  rms(total) = 0.73938E+00    rms(broyden)= 0.73928E+00
  rms(prec ) = 0.86374E+00
  weight for this iteration     100.00

 eigenvalues of (default mixing * dielectric matrix)
  average eigenvalue GAMMA=   0.6050
  2.0687  0.9836  0.9836  0.4861  0.2608  0.1775  0.1775  0.1707  0.1361

 Free energy of the ion-electron system (eV)
  ---------------------------------------------------
  alpha Z        PSCENC =      1184.06556306
  Ewald energy   TEWEN  =    165109.67962105
  -Hartree energ DENC   =   -220246.91583477
  -exchange      EXHF   =         0.00000000
  -V(xc)+E(xc)   XCENC  =     -1835.72802579
  PAW double counting   =     61475.29153471   -57637.12755674
  entropy T*S    EENTRO =        -0.26236033
  eigenvalues    EBANDS =     -1172.79958909
  atomic energy  EATOM  =     52784.82232594
  Solvation  Ediel_sol  =         0.00000000
  ---------------------------------------------------
  free energy    TOTEN  =      -338.97432198 eV

  energy without entropy =     -338.71196165  energy(sigma->0) =     -338.88686854


--------------------------------------------------------------------------------------------------------




--------------------------------------- Iteration      1(  15)  ---------------------------------------


    POTLOK:  cpu time    0.0205: real time    0.0406
    SETDIJ:  cpu time    0.0038: real time    0.0038
     EDDAV:  cpu time    5.8900: real time    5.8898
       DOS:  cpu time    0.0014: real time    0.0014
    CHARGE:  cpu time    0.1039: real time    0.1039
    MIXING:  cpu time    0.0015: real time    0.0015
    --------------------------------------------
      LOOP:  cpu time    6.0211: real time    6.0409

 eigenvalue-minimisations  :  4168
 total energy-change (2. order) : 0.2197609E+00  (-0.5393982E-01)
 number of electron     655.9999630 magnetization 
 augmentation part      270.2910919 magnetization 

 Broyden mixing:
  rms(total) = 0.42580E+00    rms(broyden)= 0.42570E+00
  rms(prec ) = 0.51133E+00
  weight for this iteration     100.00

 eigenvalues of (default mixing * dielectric matrix)
  average eigenvalue GAMMA=   0.6141
  2.0841  1.1642  1.1642  0.5371  0.2906  0.1761  0.1761  0.2189  0.1902  0.1395

 Free energy of the ion-electron system (eV)
  ---------------------------------------------------
  alpha Z        PSCENC =      1184.06556306
  Ewald energy   TEWEN  =    165109.67962105
  -Hartree energ DENC   =   -220265.18264816
  -exchange      EXHF   =         0.00000000
  -V(xc)+E(xc)   XCENC  =     -1835.74017967
  PAW double counting   =     61468.38623649   -57630.42285963
  entropy T*S    EENTRO =        -0.29719531
  eigenvalues    EBANDS =     -1154.06542487
  atomic energy  EATOM  =     52784.82232594
  Solvation  Ediel_sol  =         0.00000000
  ---------------------------------------------------
  free energy    TOTEN  =      -338.75456109 eV

  energy without entropy =     -338.45736578  energy(sigma->0) =     -338.65549599


--------------------------------------------------------------------------------------------------------




--------------------------------------- Iteration      1(  16)  ---------------------------------------


    POTLOK:  cpu time    0.0175: real time    0.0175
    SETDIJ:  cpu time    0.0037: real time    0.0037
     EDDAV:  cpu time    5.8336: real time    5.8332
       DOS:  cpu time    0.0015: real time    0.0015
    CHARGE:  cpu time    0.1005: real time    0.1005
    MIXING:  cpu time    0.0014: real time    0.0014
    --------------------------------------------
      LOOP:  cpu time    5.9583: real time    5.9579

 eigenvalue-minimisations  :  4128
 total energy-change (2. order) : 0.8869605E-01  (-0.3080323E-01)
 number of electron     655.9999627 magnetization 
 augmentation part      270.3590191 magnetization 

 Broyden mixing:
  rms(total) = 0.32292E+00    rms(broyden)= 0.32285E+00
  rms(prec ) = 0.38295E+00
  weight for this iteration     100.00

 eigenvalues of (default mixing * dielectric matrix)
  average eigenvalue GAMMA=   0.6268
  2.0958  1.3363  1.3363  0.5953  0.4261  0.2472  0.1771  0.1771  0.2144  0.1556
  0.1336

 Free energy of the ion-electron system (eV)
  ---------------------------------------------------
  alpha Z        PSCENC =      1184.06556306
  Ewald energy   TEWEN  =    165109.67962105
  -Hartree energ DENC   =   -220274.58967174
  -exchange      EXHF   =         0.00000000
  -V(xc)+E(xc)   XCENC  =     -1835.65465223
  PAW double counting   =     61456.47981975   -57618.49120246
  entropy T*S    EENTRO =        -0.29686236
  eigenvalues    EBANDS =     -1144.68080603
  atomic energy  EATOM  =     52784.82232594
  Solvation  Ediel_sol  =         0.00000000
  ---------------------------------------------------
  free energy    TOTEN  =      -338.66586504 eV

  energy without entropy =     -338.36900268  energy(sigma->0) =     -338.56691092


--------------------------------------------------------------------------------------------------------




--------------------------------------- Iteration      1(  17)  ---------------------------------------


    POTLOK:  cpu time    0.0174: real time    0.0174
    SETDIJ:  cpu time    0.0037: real time    0.0037
     EDDAV:  cpu time    5.8601: real time    5.8596
       DOS:  cpu time    0.0015: real time    0.0015
    CHARGE:  cpu time    0.1001: real time    0.1000
    MIXING:  cpu time    0.0012: real time    0.0011
    --------------------------------------------
      LOOP:  cpu time    5.9839: real time    5.9834

 eigenvalue-minimisations  :  4120
 total energy-change (2. order) : 0.1651381E-01  (-0.2039673E-01)
 number of electron     655.9999629 magnetization 
 augmentation part      270.3596701 magnetization 

 Broyden mixing:
  rms(total) = 0.26226E+00    rms(broyden)= 0.26222E+00
  rms(prec ) = 0.31528E+00
  weight for this iteration     100.00

 eigenvalues of (default mixing * dielectric matrix)
  average eigenvalue GAMMA=   0.6261
  2.0928  1.4273  1.4273  0.6957  0.5523  0.2502  0.2502  0.1776  0.1776  0.1812
  0.1464  0.1344

 Free energy of the ion-electron system (eV)
  ---------------------------------------------------
  alpha Z        PSCENC =      1184.06556306
  Ewald energy   TEWEN  =    165109.67962105
  -Hartree energ DENC   =   -220289.75650122
  -exchange      EXHF   =         0.00000000
  -V(xc)+E(xc)   XCENC  =     -1835.55780772
  PAW double counting   =     61442.34962072   -57604.27565793
  entropy T*S    EENTRO =        -0.30603732
  eigenvalues    EBANDS =     -1129.67047780
  atomic energy  EATOM  =     52784.82232594
  Solvation  Ediel_sol  =         0.00000000
  ---------------------------------------------------
  free energy    TOTEN  =      -338.64935122 eV

  energy without entropy =     -338.34331391  energy(sigma->0) =     -338.54733878


--------------------------------------------------------------------------------------------------------




--------------------------------------- Iteration      1(  18)  ---------------------------------------


    POTLOK:  cpu time    0.0172: real time    0.0172
    SETDIJ:  cpu time    0.0038: real time    0.0038
     EDDAV:  cpu time    5.8623: real time    5.8619
       DOS:  cpu time    0.0015: real time    0.0015
    CHARGE:  cpu time    0.1006: real time    0.1006
    MIXING:  cpu time    0.0011: real time    0.0011
    --------------------------------------------
      LOOP:  cpu time    5.9864: real time    5.9861

 eigenvalue-minimisations  :  4152
 total energy-change (2. order) : 0.3729842E-01  (-0.7436218E-02)
 number of electron     655.9999628 magnetization 
 augmentation part      270.3230610 magnetization 

 Broyden mixing:
  rms(total) = 0.15155E+00    rms(broyden)= 0.15153E+00
  rms(prec ) = 0.17727E+00
  weight for this iteration     100.00

 eigenvalues of (default mixing * dielectric matrix)
  average eigenvalue GAMMA=   0.6220
  2.1496  1.7656  1.1966  0.7258  0.6357  0.2916  0.2916  0.1770  0.1770  0.2067
  0.1930  0.1403  0.1358

 Free energy of the ion-electron system (eV)
  ---------------------------------------------------
  alpha Z        PSCENC =      1184.06556306
  Ewald energy   TEWEN  =    165109.67962105
  -Hartree energ DENC   =   -220304.44589716
  -exchange      EXHF   =         0.00000000
  -V(xc)+E(xc)   XCENC  =     -1835.44849579
  PAW double counting   =     61431.90534961   -57593.63882504
  entropy T*S    EENTRO =        -0.30861406
  eigenvalues    EBANDS =     -1115.24308040
  atomic energy  EATOM  =     52784.82232594
  Solvation  Ediel_sol  =         0.00000000
  ---------------------------------------------------
  free energy    TOTEN  =      -338.61205280 eV

  energy without entropy =     -338.30343875  energy(sigma->0) =     -338.50918145


--------------------------------------------------------------------------------------------------------




--------------------------------------- Iteration      1(  19)  ---------------------------------------


    POTLOK:  cpu time    0.0184: real time    0.0272
    SETDIJ:  cpu time    0.0039: real time    0.0039
     EDDAV:  cpu time    5.9477: real time    5.9475
       DOS:  cpu time    0.0015: real time    0.0015
    CHARGE:  cpu time    0.0999: real time    0.0999
    MIXING:  cpu time    0.0014: real time    0.0014
    --------------------------------------------
      LOOP:  cpu time    6.0728: real time    6.0813

 eigenvalue-minimisations  :  4216
 total energy-change (2. order) : 0.7920789E-02  (-0.4542915E-02)
 number of electron     655.9999629 magnetization 
 augmentation part      270.2873178 magnetization 

 Broyden mixing:
  rms(total) = 0.12943E+00    rms(broyden)= 0.12941E+00
  rms(prec ) = 0.15526E+00
  weight for this iteration     100.00

 eigenvalues of (default mixing * dielectric matrix)
  average eigenvalue GAMMA=   0.6144
  2.1926  1.6801  1.2534  0.7486  0.7486  0.4556  0.3097  0.2146  0.2146  0.1767
  0.1767  0.1571  0.1378  0.1358

 Free energy of the ion-electron system (eV)
  ---------------------------------------------------
  alpha Z        PSCENC =      1184.06556306
  Ewald energy   TEWEN  =    165109.67962105
  -Hartree energ DENC   =   -220316.36502671
  -exchange      EXHF   =         0.00000000
  -V(xc)+E(xc)   XCENC  =     -1835.38689704
  PAW double counting   =     61427.41365829   -57589.11018059
  entropy T*S    EENTRO =        -0.31023336
  eigenvalues    EBANDS =     -1103.41296264
  atomic energy  EATOM  =     52784.82232594
  Solvation  Ediel_sol  =         0.00000000
  ---------------------------------------------------
  free energy    TOTEN  =      -338.60413202 eV

  energy without entropy =     -338.29389865  energy(sigma->0) =     -338.50072089


--------------------------------------------------------------------------------------------------------




--------------------------------------- Iteration      1(  20)  ---------------------------------------


    POTLOK:  cpu time    0.0176: real time    0.0176
    SETDIJ:  cpu time    0.0037: real time    0.0037
     EDDAV:  cpu time    5.9051: real time    5.9047
       DOS:  cpu time    0.0016: real time    0.0016
    CHARGE:  cpu time    0.0982: real time    0.0982
    MIXING:  cpu time    0.0016: real time    0.0016
    --------------------------------------------
      LOOP:  cpu time    6.0278: real time    6.0275

 eigenvalue-minimisations  :  4184
 total energy-change (2. order) : 0.3940630E-02  (-0.2903893E-02)
 number of electron     655.9999628 magnetization 
 augmentation part      270.2901052 magnetization 

 Broyden mixing:
  rms(total) = 0.99195E-01    rms(broyden)= 0.99179E-01
  rms(prec ) = 0.11828E+00
  weight for this iteration     100.00

 eigenvalues of (default mixing * dielectric matrix)
  average eigenvalue GAMMA=   0.6318
  2.3404  1.7606  1.2777  0.9253  0.9253  0.5254  0.3017  0.2330  0.2330  0.1769
  0.1769  0.1849  0.1469  0.1376  0.1316

 Free energy of the ion-electron system (eV)
  ---------------------------------------------------
  alpha Z        PSCENC =      1184.06556306
  Ewald energy   TEWEN  =    165109.67962105
  -Hartree energ DENC   =   -220320.80412077
  -exchange      EXHF   =         0.00000000
  -V(xc)+E(xc)   XCENC  =     -1835.34789241
  PAW double counting   =     61427.98065794   -57589.70957184
  entropy T*S    EENTRO =        -0.31101092
  eigenvalues    EBANDS =     -1098.97576342
  atomic energy  EATOM  =     52784.82232594
  Solvation  Ediel_sol  =         0.00000000
  ---------------------------------------------------
  free energy    TOTEN  =      -338.60019139 eV

  energy without entropy =     -338.28918046  energy(sigma->0) =     -338.49652108


--------------------------------------------------------------------------------------------------------




--------------------------------------- Iteration      1(  21)  ---------------------------------------


    POTLOK:  cpu time    0.0184: real time    0.0184
    SETDIJ:  cpu time    0.0039: real time    0.0039
     EDDAV:  cpu time    5.9236: real time    5.9232
       DOS:  cpu time    0.0016: real time    0.0016
    CHARGE:  cpu time    0.0997: real time    0.0997
    MIXING:  cpu time    0.0012: real time    0.0012
    --------------------------------------------
      LOOP:  cpu time    6.0484: real time    6.0480

 eigenvalue-minimisations  :  4216
 total energy-change (2. order) : 0.5345970E-02  (-0.1445662E-02)
 number of electron     655.9999629 magnetization 
 augmentation part      270.2668489 magnetization 

 Broyden mixing:
  rms(total) = 0.63143E-01    rms(broyden)= 0.63127E-01
  rms(prec ) = 0.80101E-01
  weight for this iteration     100.00

 eigenvalues of (default mixing * dielectric matrix)
  average eigenvalue GAMMA=   0.6300
  2.3267  1.7394  1.4162  1.0061  1.0061  0.5544  0.3122  0.3122  0.2596  0.1772
  0.1772  0.1914  0.1914  0.1440  0.1349  0.1315

 Free energy of the ion-electron system (eV)
  ---------------------------------------------------
  alpha Z        PSCENC =      1184.06556306
  Ewald energy   TEWEN  =    165109.67962105
  -Hartree energ DENC   =   -220331.17676216
  -exchange      EXHF   =         0.00000000
  -V(xc)+E(xc)   XCENC  =     -1835.30212968
  PAW double counting   =     61426.00521194   -57587.80003118
  entropy T*S    EENTRO =        -0.31081740
  eigenvalues    EBANDS =     -1088.57782697
  atomic energy  EATOM  =     52784.82232594
  Solvation  Ediel_sol  =         0.00000000
  ---------------------------------------------------
  free energy    TOTEN  =      -338.59484542 eV

  energy without entropy =     -338.28402801  energy(sigma->0) =     -338.49123961


[...]
      2.786228  3.217259  9.774946            0           0           0  
      5.572456  3.217259  9.774946            0           0           0  
      8.358684  3.217259  9.774946            0           0           0  
     11.144912  3.217259  9.774946            0           0           0  
      4.179342  5.630203  9.774946            0           0           0  
      6.965570  5.630203  9.774946            0           0           0  
      9.751798  5.630203  9.774946            0           0           0  
     12.538026  5.630203  9.774946            0           0           0  
      5.572456  8.043147  9.774946            0           0           0  
      8.358684  8.043147  9.774946            0           0           0  
     11.144912  8.043147  9.774946            0           0           0  
     13.931140  8.043147  9.774946            0           0           0  
     11.144912  1.608629 12.071933            0           0           0  
      2.786228  1.608629 12.071933            0           0           0  
      5.572456  1.608629 12.071933            0           0           0  
      8.358684  1.608629 12.071933            0           0           0  
     12.538026  4.021574 12.071933            0           0           0  
      4.179342  4.021574 12.071933            0           0           0  
      6.965570  4.021574 12.071933            0           0           0  
      9.751798  4.021574 12.071933            0           0           0  
     13.931140  6.434518 12.071933            0           0           0  
      5.572456  6.434518 12.071933            0           0           0  
      8.358684  6.434518 12.071933            0           0           0  
     11.144912  6.434518 12.071933            0           0           0  
     15.324254  8.847462 12.071933            0           0           0  
      6.965570  8.847462 12.071933            0           0           0  
      9.751798  8.847462 12.071933            0           0           0  
     12.538026  8.847462 12.071933            0           0           0  
      0.000000  0.000000 14.391125            0           0           0  
      2.786228  0.000000 14.391125            0           0           0  
      5.572456  0.000000 14.391125            0           0           0  
      8.358684  0.000000 14.391125            0           0           0  
      1.393114  2.412944 14.391125            0           0           0  
      4.179342  2.412944 14.391125            0           0           0  
      6.965570  2.412944 14.391125            0           0           0  
      9.751798  2.412944 14.391125            0           0           0  
      2.786228  4.825888 14.391125            0           0           0  
      5.572456  4.825888 14.391125            0           0           0  
      8.358684  4.825888 14.391125            0           0           0  
     11.144912  4.825888 14.391125            0           0           0  
      4.179342  7.238833 14.391125            0           0           0  
      6.965570  7.238833 14.391125            0           0           0  
      9.751798  7.238833 14.391125            0           0           0  
     12.538026  7.238833 14.391125            0           0           0  
      2.765743  0.085617 16.418330    -0.702657    0.416118   -0.295494  
      2.592911  0.234425 17.520985     0.340734   -0.188594   -0.052424  
     11.105126  1.513326 15.617136    -0.288757   -0.070103    0.055598  
 
   7 f  =    6.118939 THz    38.446427 2PiTHz  204.105828 cm-1    25.305907 meV
             X         Y         Z           dx          dy          dz
      0.000000  0.000000  7.500000            0           0           0  
      2.786228  0.000000  7.500000            0           0           0  
      5.572456  0.000000  7.500000            0           0           0  
      8.358684  0.000000  7.500000            0           0           0  
      1.393114  2.412944  7.500000            0           0           0  
      4.179342  2.412944  7.500000            0           0           0  
      6.965570  2.412944  7.500000            0           0           0  
      9.751798  2.412944  7.500000            0           0           0  
      2.786228  4.825888  7.500000            0           0           0  
      5.572456  4.825888  7.500000            0           0           0  
      8.358684  4.825888  7.500000            0           0           0  
     11.144912  4.825888  7.500000            0           0           0  
      4.179342  7.238833  7.500000            0           0           0  
      6.965570  7.238833  7.500000            0           0           0  
      9.751798  7.238833  7.500000            0           0           0  
     12.538026  7.238833  7.500000            0           0           0  
      1.393114  0.804315  9.774946            0           0           0  
      4.179342  0.804315  9.774946            0           0           0  
      6.965570  0.804315  9.774946            0           0           0  
      9.751798  0.804315  9.774946            0           0           0  
      2.786228  3.217259  9.774946            0           0           0  
      5.572456  3.217259  9.774946            0           0           0  
      8.358684  3.217259  9.774946            0           0           0  
     11.144912  3.217259  9.774946            0           0           0  
      4.179342  5.630203  9.774946            0           0           0  
      6.965570  5.630203  9.774946            0           0           0  
      9.751798  5.630203  9.774946            0           0           0  
     12.538026  5.630203  9.774946            0           0           0  
      5.572456  8.043147  9.774946            0           0           0  
      8.358684  8.043147  9.774946            0           0           0  
     11.144912  8.043147  9.774946            0           0           0  
     13.931140  8.043147  9.774946            0           0           0  
     11.144912  1.608629 12.071933            0           0           0  
      2.786228  1.608629 12.071933            0           0           0  
      5.572456  1.608629 12.071933            0           0           0  
      8.358684  1.608629 12.071933            0           0           0  
     12.538026  4.021574 12.071933            0           0           0  
      4.179342  4.021574 12.071933            0           0           0  
      6.965570  4.021574 12.071933            0           0           0  
      9.751798  4.021574 12.071933            0           0           0  
     13.931140  6.434518 12.071933            0           0           0  
      5.572456  6.434518 12.071933            0           0           0  
      8.358684  6.434518 12.071933            0           0           0  
     11.144912  6.434518 12.071933            0           0           0  
     15.324254  8.847462 12.071933            0           0           0  
      6.965570  8.847462 12.071933            0           0           0  
      9.751798  8.847462 12.071933            0           0           0  
     12.538026  8.847462 12.071933            0           0           0  
      0.000000  0.000000 14.391125            0           0           0  
      2.786228  0.000000 14.391125            0           0           0  
      5.572456  0.000000 14.391125            0           0           0  
      8.358684  0.000000 14.391125            0           0           0  
      1.393114  2.412944 14.391125            0           0           0  
      4.179342  2.412944 14.391125            0           0           0  
      6.965570  2.412944 14.391125            0           0           0  
      9.751798  2.412944 14.391125            0           0           0  
      2.786228  4.825888 14.391125            0           0           0  
      5.572456  4.825888 14.391125            0           0           0  
      8.358684  4.825888 14.391125            0           0           0  
     11.144912  4.825888 14.391125            0           0           0  
      4.179342  7.238833 14.391125            0           0           0  
      6.965570  7.238833 14.391125            0           0           0  
      9.751798  7.238833 14.391125            0           0           0  
     12.538026  7.238833 14.391125            0           0           0  
      2.765743  0.085617 16.418330     0.481090    0.758814   -0.051743  
      2.592911  0.234425 17.520985    -0.236356   -0.360055   -0.012453  
     11.105126  1.513326 15.617136    -0.053863   -0.034566    0.017922  
 
   8 f  =    1.760213 THz    11.059746 2PiTHz   58.714395 cm-1     7.279660 meV
             X         Y         Z           dx          dy          dz
      0.000000  0.000000  7.500000            0           0           0  
      2.786228  0.000000  7.500000            0           0           0  
      5.572456  0.000000  7.500000            0           0           0  
      8.358684  0.000000  7.500000            0           0           0  
      1.393114  2.412944  7.500000            0           0           0  
      4.179342  2.412944  7.500000            0           0           0  
      6.965570  2.412944  7.500000            0           0           0  
      9.751798  2.412944  7.500000            0           0           0  
      2.786228  4.825888  7.500000            0           0           0  
      5.572456  4.825888  7.500000            0           0           0  
      8.358684  4.825888  7.500000            0           0           0  
     11.144912  4.825888  7.500000            0           0           0  
      4.179342  7.238833  7.500000            0           0           0  
      6.965570  7.238833  7.500000            0           0           0  
      9.751798  7.238833  7.500000            0           0           0  
     12.538026  7.238833  7.500000            0           0           0  
      1.393114  0.804315  9.774946            0           0           0  
      4.179342  0.804315  9.774946            0           0           0  
      6.965570  0.804315  9.774946            0           0           0  
      9.751798  0.804315  9.774946            0           0           0  
      2.786228  3.217259  9.774946            0           0           0  
      5.572456  3.217259  9.774946            0           0           0  
      8.358684  3.217259  9.774946            0           0           0  
     11.144912  3.217259  9.774946            0           0           0  
      4.179342  5.630203  9.774946            0           0           0  
      6.965570  5.630203  9.774946            0           0           0  
      9.751798  5.630203  9.774946            0           0           0  
     12.538026  5.630203  9.774946            0           0           0  
      5.572456  8.043147  9.774946            0           0           0  
      8.358684  8.043147  9.774946            0           0           0  
     11.144912  8.043147  9.774946            0           0           0  
     13.931140  8.043147  9.774946            0           0           0  
     11.144912  1.608629 12.071933            0           0           0  
      2.786228  1.608629 12.071933            0           0           0  
      5.572456  1.608629 12.071933            0           0           0  
      8.358684  1.608629 12.071933            0           0           0  
     12.538026  4.021574 12.071933            0           0           0  
      4.179342  4.021574 12.071933            0           0           0  
      6.965570  4.021574 12.071933            0           0           0  
      9.751798  4.021574 12.071933            0           0           0  
     13.931140  6.434518 12.071933            0           0           0  
      5.572456  6.434518 12.071933            0           0           0  
      8.358684  6.434518 12.071933            0           0           0  
     11.144912  6.434518 12.071933            0           0           0  
     15.324254  8.847462 12.071933            0           0           0  
      6.965570  8.847462 12.071933            0           0           0  
      9.751798  8.847462 12.071933            0           0           0  
     12.538026  8.847462 12.071933            0           0           0  
      0.000000  0.000000 14.391125            0           0           0  
      2.786228  0.000000 14.391125            0           0           0  
      5.572456  0.000000 14.391125            0           0           0  
      8.358684  0.000000 14.391125            0           0           0  
      1.393114  2.412944 14.391125            0           0           0  
      4.179342  2.412944 14.391125            0           0           0  
      6.965570  2.412944 14.391125            0           0           0  
      9.751798  2.412944 14.391125            0           0           0  
      2.786228  4.825888 14.391125            0           0           0  
      5.572456  4.825888 14.391125            0           0           0  
      8.358684  4.825888 14.391125            0           0           0  
     11.144912  4.825888 14.391125            0           0           0  
      4.179342  7.238833 14.391125            0           0           0  
      6.965570  7.238833 14.391125            0           0           0  
      9.751798  7.238833 14.391125            0           0           0  
     12.538026  7.238833 14.391125            0           0           0  
      2.765743  0.085617 16.418330     0.307783   -0.288658   -0.019957  
      2.592911  0.234425 17.520985     0.650224   -0.626263    0.078862  
     11.105126  1.513326 15.617136     0.018069   -0.002389    0.000099  
 
   9 f  =    1.470038 THz     9.236524 2PiTHz   49.035201 cm-1     6.079592 meV
             X         Y         Z           dx          dy          dz
      0.000000  0.000000  7.500000            0           0           0  
      2.786228  0.000000  7.500000            0           0           0  
      5.572456  0.000000  7.500000            0           0           0  
      8.358684  0.000000  7.500000            0           0           0  
      1.393114  2.412944  7.500000            0           0           0  
      4.179342  2.412944  7.500000            0           0           0  
      6.965570  2.412944  7.500000            0           0           0  
      9.751798  2.412944  7.500000            0           0           0  
      2.786228  4.825888  7.500000            0           0           0  
      5.572456  4.825888  7.500000            0           0           0  
      8.358684  4.825888  7.500000            0           0           0  
     11.144912  4.825888  7.500000            0           0           0  
      4.179342  7.238833  7.500000            0           0           0  
      6.965570  7.238833  7.500000            0           0           0  
      9.751798  7.238833  7.500000            0           0           0  
     12.538026  7.238833  7.500000            0           0           0  
      1.393114  0.804315  9.774946            0           0           0  
      4.179342  0.804315  9.774946            0           0           0  
      6.965570  0.804315  9.774946            0           0           0  
      9.751798  0.804315  9.774946            0           0           0  
      2.786228  3.217259  9.774946            0           0           0  
      5.572456  3.217259  9.774946            0           0           0  
      8.358684  3.217259  9.774946            0           0           0  
     11.144912  3.217259  9.774946            0           0           0  
      4.179342  5.630203  9.774946            0           0           0  
      6.965570  5.630203  9.774946            0           0           0  
      9.751798  5.630203  9.774946            0           0           0  
     12.538026  5.630203  9.774946            0           0           0  
      5.572456  8.043147  9.774946            0           0           0  
      8.358684  8.043147  9.774946            0           0           0  
     11.144912  8.043147  9.774946            0           0           0  
     13.931140  8.043147  9.774946            0           0           0  
     11.144912  1.608629 12.071933            0           0           0  
      2.786228  1.608629 12.071933            0           0           0  
      5.572456  1.608629 12.071933            0           0           0  
      8.358684  1.608629 12.071933            0           0           0  
     12.538026  4.021574 12.071933            0           0           0  
      4.179342  4.021574 12.071933            0           0           0  
      6.965570  4.021574 12.071933            0           0           0  
      9.751798  4.021574 12.071933            0           0           0  
     13.931140  6.434518 12.071933            0           0           0  
      5.572456  6.434518 12.071933            0           0           0  
      8.358684  6.434518 12.071933            0           0           0  
     11.144912  6.434518 12.071933            0           0           0  
     15.324254  8.847462 12.071933            0           0           0  
      6.965570  8.847462 12.071933            0           0           0  
      9.751798  8.847462 12.071933            0           0           0  
     12.538026  8.847462 12.071933            0           0           0  
      0.000000  0.000000 14.391125            0           0           0  
      2.786228  0.000000 14.391125            0           0           0  
      5.572456  0.000000 14.391125            0           0           0  
      8.358684  0.000000 14.391125            0           0           0  
      1.393114  2.412944 14.391125            0           0           0  
      4.179342  2.412944 14.391125            0           0           0  
      6.965570  2.412944 14.391125            0           0           0  
      9.751798  2.412944 14.391125            0           0           0  
      2.786228  4.825888 14.391125            0           0           0  
      5.572456  4.825888 14.391125            0           0           0  
      8.358684  4.825888 14.391125            0           0           0  
     11.144912  4.825888 14.391125            0           0           0  
      4.179342  7.238833 14.391125            0           0           0  
      6.965570  7.238833 14.391125            0           0           0  
      9.751798  7.238833 14.391125            0           0           0  
     12.538026  7.238833 14.391125            0           0           0  
      2.765743  0.085617 16.418330    -0.307895   -0.307496    0.004802  
      2.592911  0.234425 17.520985    -0.619762   -0.653041    0.002732  
     11.105126  1.513326 15.617136    -0.005442    0.003743   -0.002204  
 
 Finite differences POTIM=  2.000000000000000E-003
     LOOP+:  cpu time   74.9164: real time   75.2327
    4ORBIT:  cpu time    0.0000: real time    0.0000

 total amount of memory used by VASP MPI-rank0    53833. kBytes
=======================================================================

   base      :      30000. kBytes
   nonl-proj :       8635. kBytes
   fftplans  :       1583. kBytes
   grid      :       2530. kBytes
   one-center:         77. kBytes
   wavefun   :      11008. kBytes
 
  
  
 General timing and accounting informations for this job:
 ========================================================
  
                  Total CPU time used (sec):     1621.076
                            User time (sec):     1599.557
                          System time (sec):       21.519
                         Elapsed time (sec):     1625.410
  
                   Maximum memory used (kb):      146052.
                   Average memory used (kb):           0.
  
                          Minor page faults:        27788
                          Major page faults:           18
                 Voluntary context switches:         2110
