  67  67   0   0
  0.3503968E+02  0.1114491E-08  0.1114491E-08  0.2182484E-08  0.0000000E+00
  1.000000000000000E-004
  CAR 
 Si-Diamond                              
      9.12475354    -27.49030297  301      0.86792332      1.00000000
    -27.490  0.0000E+00  0.0000E+00
    -27.368  0.0000E+00  0.0000E+00
    -27.246  0.0000E+00  0.0000E+00
    -27.124 -0.3901E-30 -0.4761E-31
    -27.002 -0.5322E-26 -0.6496E-27
    -26.880 -0.3425E-22 -0.4181E-23
    -26.758 -0.1038E-18 -0.1268E-19
    -26.636 -0.1435E-15 -0.1753E-16
    -26.514 -0.9535E-13 -0.1166E-13
    -26.392 -0.2951E-10 -0.3613E-11
    -26.270 -0.4224E-08 -0.5191E-09
    -26.148 -0.2759E-06 -0.3419E-07
    -26.026 -0.8006E-05 -0.1011E-05
    -25.904 -0.9655E-04 -0.1280E-04
    -25.782 -0.3790E-03 -0.5905E-04
    -25.660  0.4670E-03 -0.2054E-05
    -25.537  0.5032E-02  0.6121E-03
    -25.415  0.7983E-02  0.1586E-02
    -25.293  0.3772E-02  0.2047E-02
    -25.171 -0.1300E-05  0.2047E-02
    -25.049 -0.3182E-03  0.2008E-02
    -24.927 -0.5987E-04  0.2001E-02
    -24.805 -0.4032E-05  0.2000E-02
    -24.683 -0.1153E-06  0.2000E-02
    -24.561 -0.1476E-08  0.2000E-02
    -24.439 -0.8661E-11  0.2000E-02
    -24.317 -0.2355E-13  0.2000E-02
    -24.195 -0.2911E-16  0.2000E-02
    -24.073  0.0000E+00  0.2000E-02
    -23.951  0.0000E+00  0.2000E-02
    -23.829  0.0000E+00  0.2000E-02
    -23.707  0.0000E+00  0.2000E-02
    -23.585  0.0000E+00  0.2000E-02
    -23.463  0.0000E+00  0.2000E-02
    -23.341  0.0000E+00  0.2000E-02
    -23.219  0.0000E+00  0.2000E-02
    -23.096  0.0000E+00  0.2000E-02
    -22.974 -0.3212E-30  0.2000E-02
    -22.852 -0.4446E-26  0.2000E-02
    -22.730 -0.2904E-22  0.2000E-02
    -22.608 -0.8935E-19  0.2000E-02
    -22.486 -0.1257E-15  0.2000E-02
    -22.364 -0.8454E-13  0.2000E-02
    -22.242 -0.2656E-10  0.2000E-02
    -22.120 -0.3860E-08  0.2000E-02
    -21.998 -0.2561E-06  0.2000E-02
    -21.876 -0.7554E-05  0.1999E-02
    -21.754 -0.9281E-04  0.1988E-02
    -21.632 -0.3749E-03  0.1942E-02
    -21.510  0.4172E-03  0.1993E-02
    -21.388  0.4923E-02  0.2594E-02
    -21.266  0.8002E-02  0.3570E-02
    -21.144  0.3881E-02  0.4044E-02
    -21.022  0.3092E-04  0.4048E-02
    -20.900 -0.3243E-03  0.4008E-02
    -20.778 -0.6255E-04  0.4001E-02
    -20.655 -0.4288E-05  0.4000E-02
    -20.533 -0.1246E-06  0.4000E-02
    -20.411 -0.1621E-08  0.4000E-02
    -20.289 -0.9653E-11  0.4000E-02
    -20.167 -0.2664E-13  0.4000E-02
    -20.045 -0.3639E-16  0.4000E-02
    -19.923  0.0000E+00  0.4000E-02
    -19.801  0.0000E+00  0.4000E-02
    -19.679  0.0000E+00  0.4000E-02
    -19.557  0.0000E+00  0.4000E-02
    -19.435  0.0000E+00  0.4000E-02
    -19.313  0.0000E+00  0.4000E-02
    -19.191  0.0000E+00  0.4000E-02
    -19.069  0.0000E+00  0.4000E-02
    -18.947  0.0000E+00  0.4000E-02
    -18.825  0.0000E+00  0.4000E-02
    -18.703  0.0000E+00  0.4000E-02
    -18.581  0.0000E+00  0.4000E-02
    -18.459  0.0000E+00  0.4000E-02
    -18.337  0.0000E+00  0.4000E-02
    -18.214  0.0000E+00  0.4000E-02
    -18.092  0.0000E+00  0.4000E-02
    -17.970  0.0000E+00  0.4000E-02
    -17.848  0.0000E+00  0.4000E-02
    -17.726  0.0000E+00  0.4000E-02
    -17.604  0.0000E+00  0.4000E-02
    -17.482  0.0000E+00  0.4000E-02
    -17.360  0.0000E+00  0.4000E-02
    -17.238  0.0000E+00  0.4000E-02
    -17.116  0.0000E+00  0.4000E-02
    -16.994  0.0000E+00  0.4000E-02
    -16.872  0.0000E+00  0.4000E-02
    -16.750  0.0000E+00  0.4000E-02
    -16.628  0.0000E+00  0.4000E-02
    -16.506  0.0000E+00  0.4000E-02
    -16.384  0.0000E+00  0.4000E-02
    -16.262  0.0000E+00  0.4000E-02
    -16.140  0.0000E+00  0.4000E-02
    -16.018  0.0000E+00  0.4000E-02
    -15.896  0.0000E+00  0.4000E-02
    -15.773  0.0000E+00  0.4000E-02
    -15.651  0.0000E+00  0.4000E-02
    -15.529  0.0000E+00  0.4000E-02
    -15.407  0.0000E+00  0.4000E-02
    -15.285  0.0000E+00  0.4000E-02
    -15.163  0.0000E+00  0.4000E-02
    -15.041  0.0000E+00  0.4000E-02
    -14.919  0.0000E+00  0.4000E-02
    -14.797  0.0000E+00  0.4000E-02
    -14.675  0.0000E+00  0.4000E-02
    -14.553  0.0000E+00  0.4000E-02
    -14.431  0.0000E+00  0.4000E-02
    -14.309  0.0000E+00  0.4000E-02
    -14.187  0.0000E+00  0.4000E-02
    -14.065  0.0000E+00  0.4000E-02
    -13.943  0.0000E+00  0.4000E-02
    -13.821  0.0000E+00  0.4000E-02
    -13.699  0.0000E+00  0.4000E-02
    -13.577  0.0000E+00  0.4000E-02
    -13.455  0.0000E+00  0.4000E-02
    -13.332  0.0000E+00  0.4000E-02
    -13.210  0.0000E+00  0.4000E-02
    -13.088  0.0000E+00  0.4000E-02
    -12.966  0.0000E+00  0.4000E-02
    -12.844  0.0000E+00  0.4000E-02
    -12.722  0.0000E+00  0.4000E-02
    -12.600  0.0000E+00  0.4000E-02
    -12.478  0.0000E+00  0.4000E-02
    -12.356  0.0000E+00  0.4000E-02
    -12.234  0.0000E+00  0.4000E-02
    -12.112  0.0000E+00  0.4000E-02
    -11.990  0.0000E+00  0.4000E-02
    -11.868  0.0000E+00  0.4000E-02
    -11.746  0.0000E+00  0.4000E-02
    -11.624  0.0000E+00  0.4000E-02
    -11.502  0.0000E+00  0.4000E-02
    -11.380  0.0000E+00  0.4000E-02
    -11.258  0.0000E+00  0.4000E-02
    -11.136  0.0000E+00  0.4000E-02
    -11.014  0.0000E+00  0.4000E-02
    -10.891 -0.1110E-30  0.4000E-02
    -10.769 -0.1665E-26  0.4000E-02
    -10.647 -0.1178E-22  0.4000E-02
    -10.525 -0.3929E-19  0.4000E-02
    -10.403 -0.5981E-16  0.4000E-02
    -10.281 -0.4373E-13  0.4000E-02
    -10.159 -0.1491E-10  0.4000E-02
    -10.037 -0.2354E-08  0.4000E-02
     -9.915 -0.1700E-06  0.4000E-02
     -9.793 -0.5478E-05  0.3999E-02
     -9.671 -0.7433E-04  0.3990E-02
     -9.549 -0.3479E-03  0.3948E-02
     -9.427  0.1772E-03  0.3969E-02
     -9.305  0.4324E-02  0.4497E-02
     -9.183  0.8041E-02  0.5479E-02
     -9.061  0.4478E-02  0.6025E-02
     -8.939  0.2341E-03  0.6054E-02
     -8.817 -0.3556E-03  0.6010E-02
     -8.695 -0.8208E-04  0.6000E-02
     -8.573 -0.5937E-04  0.5993E-02
     -8.450 -0.3343E-03  0.5952E-02
     -8.328 -0.3558E-03  0.5909E-02
     -8.206  0.3153E-02  0.6294E-02
     -8.084  0.1062E-01  0.7590E-02
     -7.962  0.1302E-01  0.9179E-02
     -7.840  0.6730E-02  0.1000E-01
     -7.718  0.6703E-03  0.1008E-01
     -7.596 -0.5096E-03  0.1002E-01
     -7.474 -0.1497E-03  0.1000E-01
     -7.352 -0.1436E-04  0.1000E-01
     -7.230 -0.6080E-06  0.1000E-01
     -7.108 -0.1501E-05  0.1000E-01
     -6.986 -0.2900E-04  0.9996E-02
     -6.864 -0.2186E-03  0.9970E-02
     -6.742 -0.3237E-03  0.9930E-02
     -6.620  0.2194E-02  0.1020E-01
     -6.498  0.7273E-02  0.1109E-01
     -6.376  0.6599E-02  0.1189E-01
     -6.254  0.1470E-02  0.1207E-01
     -6.132 -0.3874E-03  0.1202E-01
     -6.009 -0.1691E-03  0.1200E-01
     -5.887 -0.2303E-04  0.1200E-01
     -5.765 -0.3185E-04  0.1200E-01
     -5.643 -0.7407E-04  0.1199E-01
     -5.521  0.7094E-04  0.1200E-01
     -5.399  0.9111E-03  0.1211E-01
     -5.277  0.3401E-02  0.1252E-01
     -5.155  0.5300E-02  0.1317E-01
     -5.033  0.2835E-02  0.1351E-01
     -4.911  0.1742E-02  0.1373E-01
     -4.789  0.5357E-02  0.1438E-01
     -4.667  0.7720E-02  0.1532E-01
     -4.545  0.5700E-02  0.1602E-01
     -4.423  0.1700E-02  0.1623E-01
     -4.301  0.2889E-02  0.1658E-01
     -4.179  0.1164E-01  0.1800E-01
     -4.057  0.1480E-01  0.1981E-01
     -3.935  0.1115E-01  0.2117E-01
     -3.813  0.2235E-01  0.2389E-01
     -3.691  0.5397E-01  0.3048E-01
     -3.568  0.8517E-01  0.4088E-01
     -3.446  0.9607E-01  0.5260E-01
     -3.324  0.1105E+00  0.6609E-01
     -3.202  0.1450E+00  0.8379E-01
     -3.080  0.1551E+00  0.1027E+00
     -2.958  0.1298E+00  0.1186E+00
     -2.836  0.1126E+00  0.1323E+00
     -2.714  0.1142E+00  0.1463E+00
     -2.592  0.1177E+00  0.1606E+00
     -2.470  0.1178E+00  0.1750E+00
     -2.348  0.1057E+00  0.1879E+00
     -2.226  0.9811E-01  0.1999E+00
     -2.104  0.9951E-01  0.2120E+00
     -1.982  0.1037E+00  0.2247E+00
     -1.860  0.1167E+00  0.2389E+00
     -1.738  0.1270E+00  0.2544E+00
     -1.616  0.1408E+00  0.2716E+00
     -1.494  0.1565E+00  0.2907E+00
     -1.372  0.1837E+00  0.3131E+00
     -1.250  0.2039E+00  0.3380E+00
     -1.127  0.1811E+00  0.3601E+00
     -1.005  0.1413E+00  0.3773E+00
     -0.883  0.1367E+00  0.3940E+00
     -0.761  0.1294E+00  0.4098E+00
     -0.639  0.1197E+00  0.4244E+00
     -0.517  0.1419E+00  0.4418E+00
     -0.395  0.1519E+00  0.4603E+00
     -0.273  0.1394E+00  0.4773E+00
     -0.151  0.1150E+00  0.4914E+00
     -0.029  0.1207E+00  0.5061E+00
      0.093  0.1545E+00  0.5249E+00
      0.215  0.1737E+00  0.5461E+00
      0.337  0.1555E+00  0.5651E+00
      0.459  0.1221E+00  0.5800E+00
      0.581  0.1333E+00  0.5963E+00
      0.703  0.1947E+00  0.6200E+00
      0.825  0.2246E+00  0.6475E+00
      0.947  0.1776E+00  0.6691E+00
      1.069  0.1037E+00  0.6818E+00
      1.191  0.4180E-01  0.6869E+00
      1.314  0.6175E-02  0.6876E+00
      1.436 -0.2781E-03  0.6876E+00
      1.558  0.1195E-01  0.6891E+00
      1.680  0.2737E-01  0.6924E+00
      1.802  0.2924E-01  0.6960E+00
      1.924  0.1925E-01  0.6983E+00
      2.046  0.1536E-01  0.7002E+00
      2.168  0.2121E-01  0.7028E+00
      2.290  0.2496E-01  0.7058E+00
      2.412  0.2327E-01  0.7087E+00
      2.534  0.1740E-01  0.7108E+00
      2.656  0.1236E-01  0.7123E+00
      2.778  0.8914E-02  0.7134E+00
      2.900  0.8921E-02  0.7145E+00
      3.022  0.1344E-01  0.7161E+00
      3.144  0.1718E-01  0.7182E+00
      3.266  0.1880E-01  0.7205E+00
      3.388  0.2736E-01  0.7239E+00
      3.510  0.3431E-01  0.7280E+00
      3.632  0.2692E-01  0.7313E+00
      3.755  0.2319E-01  0.7342E+00
      3.877  0.3396E-01  0.7383E+00
      3.999  0.3544E-01  0.7426E+00
      4.121  0.2187E-01  0.7453E+00
      4.243  0.8519E-02  0.7463E+00
      4.365  0.5839E-02  0.7470E+00
      4.487  0.1302E-01  0.7486E+00
      4.609  0.2737E-01  0.7520E+00
      4.731  0.2979E-01  0.7556E+00
      4.853  0.1268E-01  0.7572E+00
      4.975  0.7447E-02  0.7581E+00
      5.097  0.2296E-01  0.7609E+00
      5.219  0.3516E-01  0.7652E+00
      5.341  0.2530E-01  0.7683E+00
      5.463  0.6111E-02  0.7690E+00
      5.585  0.7458E-02  0.7699E+00
      5.707  0.3424E-01  0.7741E+00
      5.829  0.4970E-01  0.7802E+00
      5.951  0.3438E-01  0.7843E+00
      6.073  0.1611E-01  0.7863E+00
      6.196  0.9621E-02  0.7875E+00
      6.318  0.8050E-02  0.7885E+00
      6.440  0.1147E-01  0.7899E+00
      6.562  0.1849E-01  0.7921E+00
      6.684  0.2079E-01  0.7947E+00
      6.806  0.1956E-01  0.7971E+00
      6.928  0.1500E-01  0.7989E+00
      7.050  0.6552E-02  0.7997E+00
      7.172  0.2061E-02  0.7999E+00
      7.294  0.7120E-03  0.8000E+00
      7.416 -0.4632E-04  0.8000E+00
      7.538 -0.1062E-03  0.8000E+00
      7.660 -0.2211E-04  0.8000E+00
      7.782 -0.1692E-05  0.8000E+00
      7.904 -0.5545E-07  0.8000E+00
      8.026 -0.8172E-09  0.8000E+00
      8.148 -0.5535E-11  0.8000E+00
      8.270 -0.1741E-13  0.8000E+00
      8.392 -0.2547E-16  0.8000E+00
      8.515  0.0000E+00  0.8000E+00
      8.637  0.0000E+00  0.8000E+00
      8.759  0.0000E+00  0.8000E+00
      8.881  0.0000E+00  0.8000E+00
      9.003  0.0000E+00  0.8000E+00
      9.125  0.0000E+00  0.8000E+00
