   67   67 1000    1
  0.3503968E+02  0.1114491E-08  0.1114491E-08  0.2182484E-08  0.0000000E+00
  1.000000000000000E-004
  CAR 
 Si-Diamond                              
    656      5    400
 
  0.0000000E+00  0.0000000E+00  0.0000000E+00  0.1111111E+00
    1      -25.490213   1.000000
    2      -21.337945   1.000000
    3       -9.242022   1.000000
    4       -8.123118   1.000000
    5       -7.985757   1.000000
    6       -6.507810   1.000000
    7       -5.421050   1.000000
    8       -4.394531   1.000000
    9       -3.953093   1.000000
   10       -3.952949   1.000000
   11       -3.952073   1.000000
   12       -3.951960   1.000000
   13       -3.951742   1.000000
   14       -3.951169   1.000000
   15       -3.869477   1.000000
   16       -3.859264   1.000000
   17       -3.859042   1.000000
   18       -3.858538   1.000000
   19       -3.743626   1.000000
   20       -3.741721   1.000000
   21       -3.741176   1.000000
   22       -3.729964   1.000000
   23       -3.574582   1.000000
   24       -3.571205   1.000000
   25       -3.570497   1.000000
   26       -3.378302   1.000000
   27       -3.374118   1.000000
   28       -3.373667   1.000000
   29       -3.373620   1.000000
   30       -3.373031   1.000000
   31       -3.372906   1.000000
   32       -3.357759   1.000000
   33       -3.356950   1.000000
   34       -3.355089   1.000000
   35       -3.196595   1.000000
   36       -3.190727   1.000000
   37       -3.187855   1.000000
   38       -3.160684   1.000000
   39       -3.154315   1.000000
   40       -3.154136   1.000000
   41       -3.153136   1.000000
   42       -3.152990   1.000000
   43       -3.152208   1.000000
   44       -3.132439   1.000000
   45       -3.123206   1.000000
   46       -3.121921   1.000000
   47       -3.121475   1.000000
   48       -3.121208   1.000000
   49       -3.119721   1.000000
   50       -3.092663   1.000000
   51       -3.077655   1.000000
   52       -3.072849   1.000000
   53       -3.072158   1.000000
   54       -3.071958   1.000000
   55       -3.070993   1.000000
   56       -2.977297   1.000000
   57       -2.901721   1.000000
   58       -2.861214   1.000000
   59       -2.861092   1.000000
   60       -2.860801   1.000000
   61       -2.859328   1.000000
   62       -2.854566   1.000000
   63       -2.820050   1.000000
   64       -2.755183   1.000000
   65       -2.744603   1.000000
   66       -2.744192   1.000000
   67       -2.741177   1.000000
   68       -2.738696   1.000000
   69       -2.737999   1.000000
   70       -2.699801   1.000000
   71       -2.692277   1.000000
   72       -2.690475   1.000000
   73       -2.690123   1.000000
   74       -2.689884   1.000000
   75       -2.688185   1.000000
   76       -2.687109   1.000000
   77       -2.661943   1.000000
   78       -2.652773   1.000000
   79       -2.574644   1.000000
   80       -2.572513   1.000000
   81       -2.570532   1.000000
   82       -2.570018   1.000000
   83       -2.569185   1.000000
   84       -2.565339   1.000000
   85       -2.385802   1.000000
   86       -2.384351   1.000000
   87       -2.382239   1.000000
   88       -2.381977   1.000000
   89       -2.381139   1.000000
   90       -2.372221   1.000000
   91       -2.292948   1.000000
   92       -2.291868   1.000000
   93       -2.288681   1.000000
   94       -2.288157   1.000000
   95       -2.287103   1.000000
   96       -2.278053   1.000000
   97       -2.223979   1.000000
   98       -2.220584   1.000000
   99       -2.217500   1.000000
  100       -2.217164   1.000000
  101       -2.215867   1.000000
  102       -2.214746   1.000000
  103       -2.214535   1.000000
  104       -2.212418   1.000000
  105       -2.212345   1.000000
  106       -2.211492   1.000000
  107       -2.208500   1.000000
  108       -2.203345   1.000000
  109       -2.000039   1.000000
  110       -1.999501   1.000000
  111       -1.999281   1.000000
  112       -1.998736   1.000000
  113       -1.998724   1.000000
  114       -1.990280   1.000000
  115       -1.940455   1.000000
  116       -1.938558   1.000000
  117       -1.931019   1.000000
  118       -1.876683   1.000000
  119       -1.876597   1.000000
  120       -1.869367   1.000000
  121       -1.869174   1.000000
  122       -1.868996   1.000000
  123       -1.868237   1.000000
  124       -1.867228   1.000000
  125       -1.863790   1.000000
  126       -1.863268   1.000000
  127       -1.794322   1.000000
  128       -1.669882   1.000000
  129       -1.669870   1.000000
  130       -1.666710   1.000000
  131       -1.661719   1.000000
  132       -1.660836   1.000000
  133       -1.658406   1.000000
  134       -1.657763   1.000000
  135       -1.655637   1.000000
  136       -1.654797   1.000000
  137       -1.654627   1.000000
  138       -1.653200   1.000000
  139       -1.652227   1.000000
  140       -1.652173   1.000000
  141       -1.647095   1.000000
  142       -1.600231   1.000000
  143       -1.581792   1.000000
  144       -1.581757   1.000000
  145       -1.438451   1.000000
  146       -1.436617   1.000000
  147       -1.436068   1.000000
  148       -1.435095   1.000000
  149       -1.434586   1.000000
  150       -1.433832   1.000000
  151       -1.427789   1.000000
  152       -1.427147   1.000000
  153       -1.426833   1.000000
  154       -1.352024   1.000000
  155       -1.351963   1.000000
  156       -1.276371   1.000000
  157       -1.276236   1.000000
  158       -1.248198   1.000000
  159       -1.247826   1.000000
  160       -1.242412   1.000000
  161       -1.241327   1.000000
  162       -1.241178   1.000000
  163       -1.240835   1.000000
  164       -1.163896   1.000000
  165       -1.163695   1.000000
  166       -1.160778   1.000000
  167       -1.160758   1.000000
  168       -1.160589   1.000000
  169       -1.159899   1.000000
  170       -1.143889   1.000000
  171       -1.139722   1.000000
  172       -1.139598   1.000000
  173       -1.133817   1.000000
  174       -1.133780   1.000000
  175       -1.132481   1.000000
  176       -1.127815   1.000000
  177       -1.120925   1.000000
  178       -1.120323   1.000000
  179       -1.116999   1.000000
  180       -1.116496   1.000000
  181       -1.115427   1.000000
  182       -1.106574   1.000000
  183       -1.106410   1.000000
  184       -1.104030   1.000000
  185       -1.103817   1.000000
  186       -1.102408   1.000000
  187       -1.099296   1.000000
  188       -1.055638   1.000000
  189       -1.054930   1.000000
  190       -1.053810   1.000000
  191       -1.048815   1.000000
  192       -1.046242   1.000000
  193       -1.044637   1.000000
  194       -0.954741   1.000000
  195       -0.949846   1.000000
  196       -0.949753   1.000000
  197       -0.948259   1.000000
  198       -0.945679   1.000000
  199       -0.945608   1.000000
  200       -0.834626   1.000000
  201       -0.831886   1.000000
  202       -0.827877   1.000000
  203       -0.826345   1.000000
  204       -0.824959   1.000000
  205       -0.812294   1.000000
  206       -0.759848   1.000000
  207       -0.758978   1.000000
  208       -0.744415   1.000000
  209       -0.684219   1.000000
  210       -0.683951   1.000000
  211       -0.682656   1.000000
  212       -0.682330   1.000000
  213       -0.681124   1.000000
  214       -0.679317   1.000000
  215       -0.658522   1.000000
  216       -0.658047   1.000000
  217       -0.656309   1.000000
  218       -0.653605   1.000000
  219       -0.653250   1.000000
  220       -0.652295   1.000000
  221       -0.650040   1.000000
  222       -0.650020   1.000000
  223       -0.645668   1.000000
  224       -0.626589   1.000000
  225       -0.512034   1.000000
  226       -0.511666   1.000000
  227       -0.505715   1.000000
  228       -0.505540   1.000000
  229       -0.505376   1.000000
  230       -0.504611   1.000000
  231       -0.438355   1.000000
  232       -0.437611   1.000000
  233       -0.434150   1.000000
  234       -0.433721   1.000000
  235       -0.433196   1.000000
  236       -0.401845   1.000000
  237       -0.355949   1.000000
  238       -0.354765   1.000000
  239       -0.343347   1.000000
  240       -0.285364   1.000000
  241       -0.285134   1.000000
  242       -0.277439   1.000000
  243       -0.276612   1.000000
  244       -0.276424   1.000000
  245       -0.276109   1.000000
  246       -0.214868   1.000000
  247       -0.214727   1.000000
  248       -0.198259   1.000000
  249       -0.194341   1.000000
  250       -0.181399   1.000000
  251       -0.181151   1.000000
  252       -0.180864   1.000000
  253       -0.180104   1.000000
  254       -0.105673   1.000000
  255       -0.102157   1.000000
  256       -0.093136   1.000000
  257       -0.092361   1.000000
  258       -0.092105   1.000000
  259       -0.091576   1.000000
  260       -0.091229   1.000000
  261       -0.090984   1.000000
  262       -0.080545   1.000000
  263       -0.079855   1.000000
  264       -0.079679   1.000000
  265       -0.078934   1.000000
  266        0.030119   1.000000
  267        0.030178   1.000000
  268        0.063424   1.000000
  269        0.064692   1.000000
  270        0.065574   1.000000
  271        0.067359   1.000000
  272        0.068145   1.000000
  273        0.077569   1.000000
  274        0.110419   1.000001
  275        0.111092   1.000001
  276        0.118249   1.000001
  277        0.118278   1.000001
  278        0.119040   1.000001
  279        0.120075   1.000001
  280        0.190087   1.000009
  281        0.193860   1.000010
  282        0.195388   1.000011
  283        0.196569   1.000011
  284        0.197281   1.000011
  285        0.215855   1.000020
  286        0.216380   1.000021
  287        0.226219   1.000028
  288        0.281855   1.000137
  289        0.411525   1.002900
  290        0.412799   1.002973
  291        0.429215   1.004073
  292        0.472210   1.008563
  293        0.472828   1.008647
  294        0.490321   1.011285
  295        0.491199   1.011431
  296        0.491423   1.011468
  297        0.491691   1.011513
  298        0.524969   1.017908
  299        0.525077   1.017931
  300        0.645136   1.033269
  301        0.646747   1.032913
  302        0.648434   1.032508
  303        0.649231   1.032305
  304        0.649364   1.032271
  305        0.665263   1.026453
  306        0.741258   0.934408
  307        0.742290   0.932252
  308        0.745306   0.925800
  309        0.802822   0.759955
  310        0.802987   0.759372
  311        0.806759   0.745877
  312        0.815371   0.714082
  313        0.815483   0.713662
  314        0.850826   0.572054
  315        0.851079   0.570996
  316        0.857952   0.542134
  317        0.858442   0.540070
  318        0.858529   0.539702
  319        0.858888   0.538191
  320        0.889652   0.408656
  321        0.889962   0.407372
  322        0.891278   0.401922
  323        0.891511   0.400957
  324        0.891648   0.400392
  325        0.891860   0.399514
  326        0.918026   0.295197
  327        0.919460   0.289752
  328        0.919758   0.288622
  329        1.021488   0.018649
  330        1.021905   0.018057
  331        1.022070   0.017824
  332        1.045648  -0.009377
  333        1.045740  -0.009461
  334        1.046306  -0.009971
  335        1.046873  -0.010477
  336        1.047139  -0.010712
  337        1.047962  -0.011431
  338        1.186110  -0.023485
  339        1.186159  -0.023474
  340        1.188765  -0.022871
  341        1.207192  -0.018707
  342        1.207402  -0.018661
  343        1.217794  -0.016452
  344        1.432865  -0.000241
  345        1.728362  -0.000000
  346        1.735072  -0.000000
  347        1.738544  -0.000000
  348        1.738908  -0.000000
  349        1.740643  -0.000000
  350        1.845796  -0.000000
  351        2.402516  -0.000000
  352        2.838313  -0.000000
  353        2.845226  -0.000000
  354        2.847421  -0.000000
  355        3.328915  -0.000000
  356        3.340383  -0.000000
  357        3.341152  -0.000000
  358        3.341533  -0.000000
  359        3.342540  -0.000000
  360        3.343418  -0.000000
  361        3.571400  -0.000000
  362        3.664381  -0.000000
  363        3.855425  -0.000000
  364        3.856877  -0.000000
  365        3.861345  -0.000000
  366        3.883034  -0.000000
  367        3.891298  -0.000000
  368        3.927547  -0.000000
  369        3.933547  -0.000000
  370        3.936410  -0.000000
  371        3.938773  -0.000000
  372        3.941972  -0.000000
  373        3.999105  -0.000000
  374        4.030290  -0.000000
  375        4.032618  -0.000000
  376        4.189917  -0.000000
  377        4.313464  -0.000000
  378        4.580283  -0.000000
  379        4.592608  -0.000000
  380        4.598723  -0.000000
  381        4.655306  -0.000000
  382        4.661909  -0.000000
  383        4.679451  -0.000000
  384        5.194839  -0.000000
  385        5.199699  -0.000000
  386        5.204295  -0.000000
  387        5.205139  -0.000000
  388        5.245869  -0.000000
  389        5.331092  -0.000000
  390        5.572955  -0.000000
  391        5.712184  -0.000000
  392        5.713969  -0.000000
  393        5.721839  -0.000000
  394        5.733997  -0.000000
  395        5.790296  -0.000000
  396        5.937418  -0.000000
  397        6.110851  -0.000000
  398        7.037937   0.000000
  399        7.115485   0.000000
  400        7.124754   0.000000
 
  0.3333333E+00 -0.3736539E-16  0.0000000E+00  0.2222222E+00
    1      -25.490222   1.000000
    2      -21.338141   1.000000
    3       -9.242148   1.000000
    4       -8.123258   1.000000
    5       -7.985614   1.000000
    6       -6.507887   1.000000
    7       -5.209908   1.000000
    8       -4.634572   1.000000
    9       -4.191341   1.000000
   10       -4.142279   1.000000
   11       -4.140860   1.000000
   12       -3.772696   1.000000
   13       -3.715624   1.000000
   14       -3.714729   1.000000
   15       -3.703487   1.000000
   16       -3.695535   1.000000
   17       -3.686145   1.000000
   18       -3.658962   1.000000
   19       -3.607250   1.000000
   20       -3.605618   1.000000
   21       -3.597420   1.000000
   22       -3.596782   1.000000
   23       -3.542644   1.000000
   24       -3.539208   1.000000
   25       -3.481335   1.000000
   26       -3.476528   1.000000
   27       -3.476318   1.000000
   28       -3.383561   1.000000
   29       -3.382338   1.000000
   30       -3.323657   1.000000
   31       -3.323527   1.000000
   32       -3.312341   1.000000
   33       -3.290226   1.000000
   34       -3.286177   1.000000
   35       -3.284225   1.000000
   36       -3.267981   1.000000
   37       -3.264495   1.000000
   38       -3.250579   1.000000
   39       -3.233095   1.000000
   40       -3.231089   1.000000
   41       -3.207467   1.000000
   42       -3.205242   1.000000
   43       -3.182741   1.000000
   44       -3.170502   1.000000
   45       -3.167784   1.000000
   46       -3.167287   1.000000
   47       -3.160657   1.000000
   48       -3.159358   1.000000
   49       -3.111528   1.000000
   50       -3.099436   1.000000
   51       -3.088275   1.000000
   52       -3.085668   1.000000
   53       -3.078960   1.000000
   54       -3.047905   1.000000
   55       -3.047793   1.000000
   56       -3.037865   1.000000
   57       -3.026291   1.000000
   58       -2.993777   1.000000
   59       -2.992004   1.000000
   60       -2.987724   1.000000
   61       -2.978598   1.000000
   62       -2.958310   1.000000
   63       -2.899229   1.000000
   64       -2.876734   1.000000
   65       -2.850292   1.000000
   66       -2.845763   1.000000
   67       -2.831424   1.000000
   68       -2.807537   1.000000
   69       -2.803361   1.000000
   70       -2.802866   1.000000
   71       -2.755280   1.000000
   72       -2.752039   1.000000
   73       -2.746478   1.000000
   74       -2.740151   1.000000
   75       -2.644645   1.000000
   76       -2.636042   1.000000
   77       -2.633013   1.000000
   78       -2.615595   1.000000
   79       -2.613388   1.000000
   80       -2.599930   1.000000
   81       -2.599808   1.000000
   82       -2.596944   1.000000
   83       -2.588419   1.000000
   84       -2.498720   1.000000
   85       -2.492192   1.000000
   86       -2.468959   1.000000
   87       -2.465707   1.000000
   88       -2.447629   1.000000
   89       -2.445786   1.000000
   90       -2.435199   1.000000
   91       -2.433893   1.000000
   92       -2.427185   1.000000
   93       -2.407649   1.000000
   94       -2.406700   1.000000
   95       -2.350426   1.000000
   96       -2.349672   1.000000
   97       -2.253858   1.000000
   98       -2.250373   1.000000
   99       -2.228025   1.000000
  100       -2.218564   1.000000
  101       -2.217487   1.000000
  102       -2.215174   1.000000
  103       -2.213114   1.000000
  104       -2.156494   1.000000
  105       -2.154979   1.000000
  106       -2.137759   1.000000
  107       -2.135167   1.000000
  108       -2.086150   1.000000
  109       -2.085852   1.000000
  110       -2.021866   1.000000
  111       -2.007060   1.000000
  112       -2.001092   1.000000
  113       -1.972533   1.000000
  114       -1.933398   1.000000
  115       -1.909111   1.000000
  116       -1.908738   1.000000
  117       -1.874102   1.000000
  118       -1.851932   1.000000
  119       -1.847375   1.000000
  120       -1.844724   1.000000
  121       -1.843137   1.000000
  122       -1.839638   1.000000
  123       -1.809501   1.000000
  124       -1.783542   1.000000
  125       -1.783003   1.000000
  126       -1.769528   1.000000
  127       -1.767275   1.000000
  128       -1.763794   1.000000
  129       -1.758368   1.000000
  130       -1.683653   1.000000
  131       -1.679494   1.000000
  132       -1.678194   1.000000
  133       -1.673612   1.000000
  134       -1.639880   1.000000
  135       -1.638056   1.000000
  136       -1.620831   1.000000
  137       -1.618341   1.000000
  138       -1.591398   1.000000
  139       -1.590483   1.000000
  140       -1.548296   1.000000
  141       -1.542916   1.000000
  142       -1.541694   1.000000
  143       -1.537874   1.000000
  144       -1.535572   1.000000
  145       -1.525401   1.000000
  146       -1.476600   1.000000
  147       -1.451460   1.000000
  148       -1.435430   1.000000
  149       -1.422491   1.000000
  150       -1.422297   1.000000
  151       -1.418566   1.000000
  152       -1.418091   1.000000
  153       -1.416801   1.000000
  154       -1.416060   1.000000
  155       -1.387929   1.000000
  156       -1.386209   1.000000
  157       -1.383749   1.000000
  158       -1.374668   1.000000
  159       -1.345519   1.000000
  160       -1.343385   1.000000
  161       -1.342679   1.000000
  162       -1.340757   1.000000
  163       -1.333265   1.000000
  164       -1.329852   1.000000
  165       -1.305312   1.000000
  166       -1.304654   1.000000
  167       -1.274548   1.000000
  168       -1.273030   1.000000
  169       -1.271765   1.000000
  170       -1.243957   1.000000
  171       -1.233376   1.000000
  172       -1.228141   1.000000
  173       -1.226643   1.000000
  174       -1.224427   1.000000
  175       -1.198956   1.000000
  176       -1.196798   1.000000
  177       -1.156440   1.000000
  178       -1.148697   1.000000
  179       -1.139740   1.000000
  180       -1.139556   1.000000
  181       -1.116063   1.000000
  182       -1.108633   1.000000
  183       -1.088139   1.000000
  184       -1.086020   1.000000
  185       -1.075332   1.000000
  186       -1.069914   1.000000
  187       -0.950990   1.000000
  188       -0.948545   1.000000
  189       -0.940385   1.000000
  190       -0.938374   1.000000
  191       -0.932851   1.000000
  192       -0.923873   1.000000
  193       -0.921734   1.000000
  194       -0.908571   1.000000
  195       -0.890778   1.000000
  196       -0.889702   1.000000
  197       -0.887850   1.000000
  198       -0.849562   1.000000
  199       -0.847431   1.000000
  200       -0.844486   1.000000
  201       -0.841176   1.000000
  202       -0.838995   1.000000
  203       -0.836026   1.000000
  204       -0.830530   1.000000
  205       -0.825130   1.000000
  206       -0.796974   1.000000
  207       -0.792018   1.000000
  208       -0.695756   1.000000
  209       -0.693010   1.000000
  210       -0.641860   1.000000
  211       -0.641311   1.000000
  212       -0.629441   1.000000
  213       -0.611206   1.000000
  214       -0.604058   1.000000
  215       -0.602240   1.000000
  216       -0.602036   1.000000
  217       -0.601029   1.000000
  218       -0.595721   1.000000
  219       -0.590030   1.000000
  220       -0.584333   1.000000
  221       -0.553010   1.000000
  222       -0.550668   1.000000
  223       -0.540832   1.000000
  224       -0.536603   1.000000
  225       -0.516520   1.000000
  226       -0.514311   1.000000
  227       -0.488769   1.000000
  228       -0.427044   1.000000
  229       -0.422617   1.000000
  230       -0.378101   1.000000
  231       -0.375841   1.000000
  232       -0.371750   1.000000
  233       -0.360549   1.000000
  234       -0.354867   1.000000
  235       -0.349009   1.000000
  236       -0.342248   1.000000
  237       -0.332367   1.000000
  238       -0.331538   1.000000
  239       -0.294170   1.000000
  240       -0.285797   1.000000
  241       -0.281629   1.000000
  242       -0.273670   1.000000
  243       -0.191716   1.000000
  244       -0.185954   1.000000
  245       -0.129287   1.000000
  246       -0.125095   1.000000
  247       -0.116569   1.000000
  248       -0.115993   1.000000
  249       -0.060601   1.000000
  250       -0.054091   1.000000
  251       -0.029155   1.000000
  252       -0.027384   1.000000
  253       -0.015654   1.000000
  254       -0.014289   1.000000
  255       -0.003201   1.000000
  256        0.015010   1.000000
  257        0.023368   1.000000
  258        0.037365   1.000000
  259        0.069067   1.000000
  260        0.092589   1.000000
  261        0.093492   1.000000
  262        0.098793   1.000000
  263        0.100558   1.000000
  264        0.117180   1.000001
  265        0.139018   1.000002
  266        0.139857   1.000002
  267        0.142627   1.000002
  268        0.143901   1.000002
  269        0.199770   1.000012
  270        0.200693   1.000013
  271        0.208318   1.000016
  272        0.212771   1.000018
  273        0.216118   1.000020
  274        0.224255   1.000026
  275        0.229526   1.000031
  276        0.236683   1.000038
  277        0.247183   1.000052
  278        0.249703   1.000056
  279        0.255529   1.000066
  280        0.273130   1.000108
  281        0.273767   1.000110
  282        0.290121   1.000171
  283        0.297019   1.000206
  284        0.322248   1.000393
  285        0.330128   1.000478
  286        0.426303   1.003857
  287        0.441351   1.005084
  288        0.447536   1.005672
  289        0.452559   1.006188
  290        0.453733   1.006314
  291        0.490021   1.011236
  292        0.495731   1.012201
  293        0.500262   1.013003
  294        0.506441   1.014148
  295        0.521759   1.017225
  296        0.583405   1.030917
  297        0.605509   1.034417
  298        0.612881   1.035092
  299        0.620441   1.035434
  300        0.623343   1.035457
  301        0.624559   1.035448
  302        0.633637   1.034987
  303        0.639425   1.034295
  304        0.643622   1.033576
  305        0.654247   1.030846
  306        0.654275   1.030837
  307        0.658580   1.029321
  308        0.671121   1.023387
  309        0.678102   1.019007
  310        0.728619   0.958654
  311        0.734333   0.948183
  312        0.735284   0.946363
  313        0.735915   0.945142
  314        0.739530   0.937958
  315        0.740766   0.935428
  316        0.741165   0.934603
  317        0.764442   0.879507
  318        0.764887   0.878321
  319        0.767305   0.871792
  320        0.770108   0.864040
  321        0.788709   0.807813
  322        0.790833   0.800884
  323        0.792826   0.794292
  324        0.797352   0.779000
  325        0.822670   0.686156
  326        0.824965   0.677206
  327        0.839547   0.618740
  328        0.866652   0.505380
  329        0.867863   0.500256
  330        0.882180   0.439845
  331        0.892029   0.398817
  332        0.896799   0.379217
  333        0.897154   0.377767
  334        0.908020   0.334060
  335        0.910194   0.325490
  336        0.926883   0.262135
  337        0.928859   0.254950
  338        0.994874   0.064999
  339        1.044172  -0.008013
  340        1.047957  -0.011426
  341        1.048860  -0.012200
  342        1.065490  -0.023818
  343        1.067552  -0.024934
  344        1.102179  -0.034984
  345        1.546774  -0.000009
  346        1.576935  -0.000003
  347        1.709402  -0.000000
  348        1.818663  -0.000000
  349        1.818923  -0.000000
  350        1.974854  -0.000000
  351        2.184114  -0.000000
  352        2.192454  -0.000000
  353        2.337562  -0.000000
  354        2.365843  -0.000000
  355        2.453486  -0.000000
  356        2.610801  -0.000000
  357        2.872719  -0.000000
  358        3.069107  -0.000000
  359        3.073789  -0.000000
  360        3.077151  -0.000000
  361        3.276181  -0.000000
  362        3.282695  -0.000000
  363        3.424148  -0.000000
  364        3.462270  -0.000000
  365        3.516493  -0.000000
  366        3.523321  -0.000000
  367        3.699106  -0.000000
  368        3.725693  -0.000000
  369        3.818035  -0.000000
  370        3.846400  -0.000000
  371        3.854688  -0.000000
  372        4.049744  -0.000000
  373        4.058889  -0.000000
  374        4.351946  -0.000000
  375        4.564574  -0.000000
  376        4.621722  -0.000000
  377        4.674218  -0.000000
  378        4.693004  -0.000000
  379        4.972839  -0.000000
  380        5.081026  -0.000000
  381        5.101132  -0.000000
  382        5.132157  -0.000000
  383        5.133917  -0.000000
  384        5.245814  -0.000000
  385        5.276674  -0.000000
  386        5.652815  -0.000000
  387        5.695808  -0.000000
  388        5.749091  -0.000000
  389        5.757023  -0.000000
  390        5.795487  -0.000000
  391        5.857843  -0.000000
  392        5.864777  -0.000000
  393        5.956662  -0.000000
  394        6.248398  -0.000000
  395        6.521399   0.000000
  396        6.614652   0.000000
  397        6.668639   0.000000
  398        6.783561   0.000000
  399        6.844961   0.000000
  400        6.849875   0.000000
 
  0.0000000E+00  0.3333333E+00  0.0000000E+00  0.2222222E+00
    1      -25.490205   1.000000
    2      -21.338092   1.000000
    3       -9.242075   1.000000
    4       -8.123178   1.000000
    5       -7.985576   1.000000
    6       -6.507684   1.000000
    7       -5.209986   1.000000
    8       -4.634675   1.000000
    9       -4.191428   1.000000
   10       -4.142163   1.000000
   11       -4.141028   1.000000
   12       -3.772618   1.000000
   13       -3.715501   1.000000
   14       -3.715125   1.000000
   15       -3.703648   1.000000
   16       -3.696610   1.000000
   17       -3.686117   1.000000
   18       -3.659689   1.000000
   19       -3.606553   1.000000
   20       -3.604819   1.000000
   21       -3.597009   1.000000
   22       -3.596499   1.000000
   23       -3.543210   1.000000
   24       -3.539246   1.000000
   25       -3.480306   1.000000
   26       -3.477558   1.000000
   27       -3.476119   1.000000
   28       -3.384744   1.000000
   29       -3.382601   1.000000
   30       -3.326372   1.000000
   31       -3.323013   1.000000
   32       -3.312736   1.000000
   33       -3.289612   1.000000
   34       -3.286049   1.000000
   35       -3.284041   1.000000
   36       -3.266789   1.000000
   37       -3.263909   1.000000
   38       -3.247886   1.000000
   39       -3.231366   1.000000
   40       -3.230582   1.000000
   41       -3.206568   1.000000
   42       -3.205707   1.000000
   43       -3.175693   1.000000
   44       -3.172457   1.000000
   45       -3.170307   1.000000
   46       -3.167256   1.000000
   47       -3.162288   1.000000
   48       -3.159240   1.000000
   49       -3.116692   1.000000
   50       -3.097962   1.000000
   51       -3.089996   1.000000
   52       -3.085623   1.000000
   53       -3.080214   1.000000
   54       -3.051108   1.000000
   55       -3.046632   1.000000
   56       -3.035440   1.000000
   57       -3.024981   1.000000
   58       -3.004055   1.000000
   59       -2.991360   1.000000
   60       -2.985824   1.000000
   61       -2.978697   1.000000
   62       -2.953117   1.000000
   63       -2.900508   1.000000
   64       -2.865716   1.000000
   65       -2.850141   1.000000
   66       -2.843949   1.000000
   67       -2.832783   1.000000
   68       -2.819682   1.000000
   69       -2.804640   1.000000
   70       -2.796991   1.000000
   71       -2.756020   1.000000
   72       -2.752016   1.000000
   73       -2.747388   1.000000
   74       -2.742420   1.000000
   75       -2.640567   1.000000
   76       -2.635984   1.000000
   77       -2.633633   1.000000
   78       -2.626537   1.000000
   79       -2.612335   1.000000
   80       -2.599745   1.000000
   81       -2.598096   1.000000
   82       -2.593889   1.000000
   83       -2.585114   1.000000
   84       -2.497328   1.000000
   85       -2.493667   1.000000
   86       -2.466666   1.000000
   87       -2.460001   1.000000
   88       -2.447876   1.000000
   89       -2.445072   1.000000
   90       -2.436208   1.000000
   91       -2.433847   1.000000
   92       -2.430436   1.000000
   93       -2.407368   1.000000
   94       -2.404069   1.000000
   95       -2.350637   1.000000
   96       -2.346072   1.000000
   97       -2.256194   1.000000