       N       E                     dE             d eps       ncg     rms          rms(c)
DAV:   1     0.381742672654E+04    0.38174E+04   -0.26676E+05  4072   0.117E+03
DAV:   2    -0.124295506165E+03   -0.39417E+04   -0.36901E+04  4464   0.286E+02
DAV:   3    -0.346047066120E+03   -0.22175E+03   -0.19856E+03  4464   0.612E+01
DAV:   4    -0.353619611220E+03   -0.75725E+01   -0.72970E+01  4688   0.112E+01
DAV:   5    -0.353904821283E+03   -0.28521E+00   -0.28165E+00  5152   0.221E+00    0.491E+01
DAV:   6    -0.338381411912E+03    0.15523E+02   -0.52064E+01  4192   0.141E+01    0.247E+01
DAV:   7    -0.341736178625E+03   -0.33548E+01   -0.84524E+00  4224   0.116E+01    0.217E+01
DAV:   8    -0.344762819357E+03   -0.30266E+01   -0.14267E+01  4192   0.214E+01    0.313E+01
DAV:   9    -0.357102929288E+03   -0.12340E+02   -0.16448E+01  4632   0.223E+01    0.378E+01
DAV:  10    -0.341830798664E+03    0.15272E+02   -0.10587E+01  4368   0.144E+01    0.180E+01
DAV:  11    -0.338661541996E+03    0.31693E+01   -0.36751E+00  4216   0.870E+00    0.113E+01
DAV:  12    -0.337950941130E+03    0.71060E+00   -0.21750E+00  4152   0.574E+00    0.103E+01
DAV:  13    -0.337334790134E+03    0.61615E+00   -0.13348E+00  4208   0.430E+00    0.638E+00
DAV:  14    -0.337096742621E+03    0.23805E+00   -0.41598E-01  4216   0.258E+00    0.309E+00
DAV:  15    -0.337054596714E+03    0.42146E-01   -0.68419E-02  4152   0.900E-01    0.232E+00
DAV:  16    -0.337043281576E+03    0.11315E-01   -0.41619E-02  4184   0.817E-01    0.218E+00
DAV:  17    -0.337039010729E+03    0.42708E-02   -0.44169E-02  4240   0.869E-01    0.224E+00
DAV:  18    -0.337011830776E+03    0.27180E-01   -0.47354E-02  4256   0.839E-01    0.169E+00
DAV:  19    -0.336992284054E+03    0.19547E-01   -0.26524E-02  4240   0.596E-01    0.806E-01
DAV:  20    -0.336989103414E+03    0.31806E-02   -0.72494E-03  4200   0.314E-01    0.485E-01
DAV:  21    -0.336987699617E+03    0.14038E-02   -0.55867E-03  4160   0.311E-01    0.340E-01
DAV:  22    -0.336988309996E+03   -0.61038E-03   -0.39704E-03  4264   0.234E-01    0.468E-01
DAV:  23    -0.336987304147E+03    0.10058E-02   -0.32361E-03  4200   0.217E-01    0.276E-01
DAV:  24    -0.336986768495E+03    0.53565E-03   -0.14006E-03  4184   0.152E-01    0.139E-01
DAV:  25    -0.336986777708E+03   -0.92128E-05   -0.59844E-04  4128   0.886E-02    0.134E-01
DAV:  26    -0.336986758485E+03    0.19223E-04   -0.32486E-04  4152   0.718E-02    0.900E-02
DAV:  27    -0.336986990837E+03   -0.23235E-03   -0.25933E-04  4112   0.579E-02    0.127E-01
DAV:  28    -0.336987239868E+03   -0.24903E-03   -0.30652E-04  4120   0.604E-02    0.828E-02
DAV:  29    -0.336987529371E+03   -0.28950E-03   -0.16896E-04  4176   0.480E-02    0.608E-02
DAV:  30    -0.336987917117E+03   -0.38775E-03   -0.96139E-05  4120   0.340E-02    0.460E-02
DAV:  31    -0.336988116135E+03   -0.19902E-03   -0.53101E-05  4216   0.275E-02    0.366E-02
DAV:  32    -0.336988539528E+03   -0.42339E-03   -0.49691E-05  4152   0.195E-02    0.285E-02
DAV:  33    -0.336988679903E+03   -0.14038E-03   -0.19000E-05  4272   0.151E-02    0.216E-02
DAV:  34    -0.336988863412E+03   -0.18351E-03   -0.16533E-05  4128   0.138E-02    0.265E-02
DAV:  35    -0.336989134494E+03   -0.27108E-03   -0.15335E-05  4184   0.126E-02    0.156E-02
DAV:  36    -0.336989353749E+03   -0.21925E-03   -0.78381E-06  3816   0.957E-03    0.173E-02
DAV:  37    -0.336989590692E+03   -0.23694E-03   -0.79514E-06  3696   0.930E-03    0.135E-02
DAV:  38    -0.336989726328E+03   -0.13564E-03   -0.37010E-06  3240   0.650E-03    0.111E-02
DAV:  39    -0.336989881123E+03   -0.15480E-03   -0.42168E-06  3288   0.610E-03    0.819E-03
DAV:  40    -0.336989925007E+03   -0.43884E-04   -0.14987E-06  2744   0.389E-03    0.582E-03
DAV:  41    -0.336989977188E+03   -0.52181E-04   -0.14387E-06  2784   0.314E-03    0.549E-03
DAV:  42    -0.336990036595E+03   -0.59407E-04   -0.17757E-06  2960   0.283E-03    0.261E-03
DAV:  43    -0.336990054158E+03   -0.17563E-04   -0.45530E-07  2552   0.165E-03    0.226E-03
DAV:  44    -0.336990069073E+03   -0.14915E-04   -0.51703E-07  2640   0.132E-03    0.983E-04
DAV:  45    -0.336990072371E+03   -0.32979E-05   -0.10362E-07  2488   0.701E-04    0.809E-04
DAV:  46    -0.336990076324E+03   -0.39527E-05   -0.12744E-07  2440   0.538E-04    0.591E-04
DAV:  47    -0.336990077499E+03   -0.11749E-05   -0.49548E-08  2488   0.421E-04    0.574E-04
DAV:  48    -0.336990078623E+03   -0.11245E-05   -0.56124E-08  2392   0.351E-04    0.308E-04
DAV:  49    -0.336990078892E+03   -0.26907E-06   -0.21733E-08  2392   0.216E-04
   1 F= -.33699008E+03 E0= -.33685894E+03  d E =-.336990E+03
       N       E                     dE             d eps       ncg     rms          rms(c)
DAV:   1    -0.336990101384E+03   -0.22761E-04   -0.12995E-05  3576   0.371E-03    0.656E-04
DAV:   2    -0.336990101485E+03   -0.10085E-06   -0.24293E-07  2432   0.777E-04    0.147E-03
DAV:   3    -0.336990101489E+03   -0.40527E-08   -0.43407E-08  2208   0.858E-04    0.131E-03
DAV:   4    -0.336990101504E+03   -0.14872E-07   -0.21989E-08  2184   0.590E-04    0.747E-04
DAV:   5    -0.336990101518E+03   -0.14021E-07   -0.10278E-08  2200   0.392E-04
   2 F= -.33699010E+03 E0= -.33685897E+03  d E =-.226257E-04
       N       E                     dE             d eps       ncg     rms          rms(c)
DAV:   1    -0.336990145971E+03   -0.44467E-04   -0.51885E-05  4000   0.741E-03    0.140E-03
DAV:   2    -0.336990146114E+03   -0.14264E-06   -0.90699E-07  2656   0.141E-03    0.237E-03
DAV:   3    -0.336990146134E+03   -0.20074E-07   -0.16838E-07  2200   0.165E-03    0.293E-03
DAV:   4    -0.336990146134E+03    0.29831E-09   -0.11392E-07  2184   0.150E-03    0.285E-03
DAV:   5    -0.336990146092E+03    0.41815E-07   -0.70127E-08  2184   0.109E-03
   3 F= -.33699015E+03 E0= -.33685901E+03  d E =-.445739E-04
       N       E                     dE             d eps       ncg     rms          rms(c)
DAV:   1    -0.336990212657E+03   -0.66523E-04   -0.11664E-04  4048   0.111E-02    0.221E-03
DAV:   2    -0.336990212920E+03   -0.26278E-06   -0.20714E-06  2840   0.225E-03    0.345E-03
DAV:   3    -0.336990212943E+03   -0.23771E-07   -0.32131E-07  2192   0.242E-03    0.407E-03
DAV:   4    -0.336990212959E+03   -0.15374E-07   -0.27329E-07  2192   0.224E-03    0.413E-03
DAV:   5    -0.336990212863E+03    0.95941E-07   -0.17412E-07  2184   0.174E-03
   4 F= -.33699021E+03 E0= -.33685908E+03  d E =-.667708E-04
       N       E                     dE             d eps       ncg     rms          rms(c)
DAV:   1    -0.336990301432E+03   -0.88473E-04   -0.20734E-04  4056   0.149E-02    0.309E-03
DAV:   2    -0.336990302068E+03   -0.63636E-06   -0.39686E-06  3120   0.365E-03    0.681E-03
DAV:   3    -0.336990301891E+03    0.17718E-06   -0.86659E-07  2288   0.372E-03    0.509E-03
DAV:   4    -0.336990302005E+03   -0.11329E-06   -0.48508E-07  2216   0.311E-03    0.644E-03
DAV:   5    -0.336990301768E+03    0.23661E-06   -0.36400E-07  2200   0.251E-03
   5 F= -.33699030E+03 E0= -.33685917E+03  d E =-.889052E-04
       N       E                     dE             d eps       ncg     rms          rms(c)
DAV:   1    -0.336990412255E+03   -0.11025E-03   -0.32392E-04  4064   0.186E-02    0.394E-03
DAV:   2    -0.336990413132E+03   -0.87640E-06   -0.60909E-06  3304   0.446E-03    0.760E-03
DAV:   3    -0.336990412915E+03    0.21679E-06   -0.10631E-06  2344   0.445E-03    0.589E-03
DAV:   4    -0.336990413207E+03   -0.29254E-06   -0.83334E-07  2256   0.390E-03    0.839E-03
DAV:   5    -0.336990412783E+03    0.42447E-06   -0.59940E-07  2240   0.331E-03
   6 F= -.33699041E+03 E0= -.33685928E+03  d E =-.111015E-03
       N       E                     dE             d eps       ncg     rms          rms(c)
DAV:   1    -0.336990545026E+03   -0.13182E-03   -0.46643E-04  4064   0.224E-02    0.484E-03
DAV:   2    -0.336990546626E+03   -0.15996E-05   -0.93427E-06  3456   0.599E-03    0.114E-02
DAV:   3    -0.336990545886E+03    0.73943E-06   -0.21148E-06  2456   0.571E-03    0.621E-03
DAV:   4    -0.336990546554E+03   -0.66740E-06   -0.11555E-06  2272   0.475E-03    0.113E-02
DAV:   5    -0.336990545776E+03    0.77750E-06   -0.99912E-07  2264   0.432E-03
   7 F= -.33699055E+03 E0= -.33685942E+03  d E =-.132993E-03
       N       E                     dE             d eps       ncg     rms          rms(c)
DAV:   1    -0.336990699669E+03   -0.15312E-03   -0.63507E-04  4064   0.262E-02    0.574E-03
DAV:   2    -0.336990701715E+03   -0.20463E-05   -0.12570E-05  3704   0.702E-03    0.125E-02
DAV:   3    -0.336990700734E+03    0.98118E-06   -0.24242E-06  2568   0.656E-03    0.629E-03
DAV:   4    -0.336990701307E+03   -0.57229E-06   -0.12975E-06  2272   0.457E-03    0.104E-02
DAV:   5    -0.336990700837E+03    0.46910E-06   -0.11550E-06  2272   0.471E-03
   8 F= -.33699070E+03 E0= -.33685957E+03  d E =-.155061E-03
       N       E                     dE             d eps       ncg     rms          rms(c)
DAV:   1    -0.336990876000E+03   -0.17469E-03   -0.82916E-04  4064   0.300E-02    0.658E-03
DAV:   2    -0.336990879415E+03   -0.34143E-05   -0.17188E-05  3808   0.860E-03    0.178E-02
DAV:   3    -0.336990878209E+03    0.12054E-05   -0.42876E-06  2576   0.882E-03    0.127E-02
DAV:   4    -0.336990877853E+03    0.35603E-06   -0.24332E-06  2344   0.663E-03    0.107E-02
DAV:   5    -0.336990877327E+03    0.52605E-06   -0.11443E-06  2256   0.416E-03
   9 F= -.33699088E+03 E0= -.33685975E+03  d E =-.176490E-03
       N       E                     dE             d eps       ncg     rms          rms(c)
DAV:   1    -0.336991074023E+03   -0.19617E-03   -0.10506E-03  4064   0.337E-02    0.763E-03
DAV:   2    -0.336991078840E+03   -0.48169E-05   -0.22020E-05  4080   0.106E-02    0.214E-02
DAV:   3    -0.336991076878E+03    0.19622E-05   -0.58303E-06  2720   0.107E-02    0.155E-02
DAV:   4    -0.336991076099E+03    0.77809E-06   -0.30866E-06  2368   0.741E-03    0.105E-02
DAV:   5    -0.336991075759E+03    0.34069E-06   -0.15049E-06  2336   0.478E-03
  10 F= -.33699108E+03 E0= -.33685994E+03  d E =-.198432E-03
       N       E                     dE             d eps       ncg     rms          rms(c)
DAV:   1    -0.336991293797E+03   -0.21770E-03   -0.12966E-03  4064   0.375E-02    0.832E-03
DAV:   2    -0.336991298536E+03   -0.47391E-05   -0.26509E-05  4088   0.103E-02    0.199E-02
DAV:   3    -0.336991296329E+03    0.22073E-05   -0.62458E-06  2920   0.997E-03    0.117E-02
DAV:   4    -0.336991297937E+03   -0.16089E-05   -0.35036E-06  2360   0.823E-03    0.186E-02
DAV:   5    -0.336991295861E+03    0.20768E-05   -0.26887E-06  2384   0.701E-03    0.710E-03
DAV:   6    -0.336991295739E+03    0.12122E-06   -0.73437E-07  2232   0.390E-03
  11 F= -.33699130E+03 E0= -.33686016E+03  d E =-.219981E-03
       N       E                     dE             d eps       ncg     rms          rms(c)
DAV:   1    -0.336991534786E+03   -0.23893E-03   -0.15632E-03  4064   0.408E-02    0.805E-03
DAV:   2    -0.336991539239E+03   -0.44532E-05   -0.29170E-05  4160   0.102E-02    0.160E-02
DAV:   3    -0.336991537728E+03    0.15115E-05   -0.43464E-06  3008   0.964E-03    0.111E-02
DAV:   4    -0.336991539074E+03   -0.13461E-05   -0.33335E-06  2320   0.781E-03    0.171E-02
DAV:   5    -0.336991537195E+03    0.18788E-05   -0.19836E-06  2336   0.641E-03    0.581E-03
DAV:   6    -0.336991537184E+03    0.11270E-07   -0.68009E-07  2176   0.345E-03
  12 F= -.33699154E+03 E0= -.33686041E+03  d E =-.241444E-03
       N       E                     dE             d eps       ncg     rms          rms(c)
DAV:   1    -0.336991796563E+03   -0.25937E-03   -0.18657E-03  4032   0.446E-02    0.950E-03
DAV:   2    -0.336991804166E+03   -0.76026E-05   -0.39467E-05  4264   0.136E-02    0.254E-02
DAV:   3    -0.336991800842E+03    0.33238E-05   -0.10038E-05  3288   0.129E-02    0.166E-02
DAV:   4    -0.336991800955E+03   -0.11248E-06   -0.44466E-06  2432   0.923E-03    0.166E-02
DAV:   5    -0.336991799625E+03    0.13294E-05   -0.29753E-06  2360   0.716E-03    0.843E-03
DAV:   6    -0.336991799378E+03    0.24753E-06   -0.96086E-07  2248   0.445E-03
  13 F= -.33699180E+03 E0= -.33686067E+03  d E =-.262194E-03
       N       E                     dE             d eps       ncg     rms          rms(c)
DAV:   1    -0.336992078672E+03   -0.27905E-03   -0.21906E-03  4032   0.484E-02    0.101E-02
DAV:   2    -0.336992085766E+03   -0.70947E-05   -0.42497E-05  4248   0.127E-02    0.221E-02
DAV:   3    -0.336992084537E+03    0.12294E-05   -0.89002E-06  3216   0.131E-02    0.211E-02
DAV:   4    -0.336992083333E+03    0.12038E-05   -0.54949E-06  2440   0.103E-02    0.155E-02
DAV:   5    -0.336992082131E+03    0.12021E-05   -0.22117E-06  2360   0.667E-03    0.765E-03
DAV:   6    -0.336992082087E+03    0.43787E-07   -0.12400E-06  2240   0.463E-03
  14 F= -.33699208E+03 E0= -.33686096E+03  d E =-.282710E-03
       N       E                     dE             d eps       ncg     rms          rms(c)
DAV:   1    -0.336992382412E+03   -0.30028E-03   -0.25398E-03  4048   0.521E-02    0.114E-02
DAV:   2    -0.336992393241E+03   -0.10829E-04   -0.55175E-05  4264   0.164E-02    0.307E-02
DAV:   3    -0.336992389182E+03    0.40588E-05   -0.15334E-05  3832   0.160E-02    0.226E-02
DAV:   4    -0.336992387964E+03    0.12185E-05   -0.66736E-06  2480   0.113E-02    0.180E-02
DAV:   5    -0.336992386618E+03    0.13460E-05   -0.39901E-06  2368   0.813E-03    0.101E-02
DAV:   6    -0.336992386234E+03    0.38431E-06   -0.13728E-06  2320   0.533E-03
  15 F= -.33699239E+03 E0= -.33686126E+03  d E =-.304146E-03
       N       E                     dE             d eps       ncg     rms          rms(c)
DAV:   1    -0.336992706013E+03   -0.31940E-03   -0.29166E-03  4032   0.558E-02    0.120E-02
DAV:   2    -0.336992717204E+03   -0.11191E-04   -0.58758E-05  4280   0.163E-02    0.293E-02
DAV:   3    -0.336992713746E+03    0.34580E-05   -0.13803E-05  3976   0.163E-02    0.244E-02
DAV:   4    -0.336992712122E+03    0.16237E-05   -0.73402E-06  2544   0.119E-02    0.177E-02
DAV:   5    -0.336992710675E+03    0.14475E-05   -0.30797E-06  2384   0.772E-03    0.945E-03
DAV:   6    -0.336992710525E+03    0.14953E-06   -0.17394E-06  2344   0.546E-03
  16 F= -.33699271E+03 E0= -.33686159E+03  d E =-.324292E-03
       N       E                     dE             d eps       ncg     rms          rms(c)
DAV:   1    -0.336993049393E+03   -0.33872E-03   -0.33157E-03  4032   0.595E-02    0.130E-02
DAV:   2    -0.336993062827E+03   -0.13434E-04   -0.71377E-05  4272   0.183E-02    0.337E-02
DAV:   3    -0.336993058678E+03    0.41493E-05   -0.19471E-05  4240   0.181E-02    0.269E-02
DAV:   4    -0.336993056471E+03    0.22071E-05   -0.89379E-06  2664   0.130E-02    0.198E-02
DAV:   5    -0.336993054964E+03    0.15064E-05   -0.50989E-06  2424   0.917E-03    0.118E-02
DAV:   6    -0.336993054392E+03    0.57204E-06   -0.18414E-06  2320   0.613E-03
  17 F= -.33699305E+03 E0= -.33686193E+03  d E =-.343867E-03
       N       E                     dE             d eps       ncg     rms          rms(c)
DAV:   1    -0.336993413040E+03   -0.35808E-03   -0.37446E-03  4016   0.632E-02    0.139E-02
DAV:   2    -0.336993428807E+03   -0.15767E-04   -0.77250E-05  4264   0.195E-02    0.355E-02
DAV:   3    -0.336993422568E+03    0.62385E-05   -0.18829E-05  4352   0.191E-02    0.267E-02
DAV:   4    -0.336993420995E+03    0.15737E-05   -0.93538E-06  2680   0.134E-02    0.205E-02
DAV:   5    -0.336993419108E+03    0.18873E-05   -0.42118E-06  2440   0.893E-03    0.113E-02
DAV:   6    -0.336993418809E+03    0.29878E-06   -0.23003E-06  2352   0.626E-03
  18 F= -.33699342E+03 E0= -.33686230E+03  d E =-.364417E-03
       N       E                     dE             d eps       ncg     rms          rms(c)
DAV:   1    -0.336993796294E+03   -0.37719E-03   -0.41926E-03  4016   0.669E-02    0.146E-02
DAV:   2    -0.336993812396E+03   -0.16102E-04   -0.89221E-05  4256   0.202E-02    0.362E-02
DAV:   3    -0.336993808320E+03    0.40757E-05   -0.23488E-05  4280   0.200E-02    0.309E-02
DAV:   4    -0.336993805162E+03    0.31584E-05   -0.11472E-05  2872   0.147E-02    0.218E-02
DAV:   5    -0.336993803431E+03    0.17308E-05   -0.63354E-06  2504   0.102E-02    0.135E-02
DAV:   6    -0.336993802652E+03    0.77944E-06   -0.23960E-06  2432   0.692E-03
  19 F= -.33699380E+03 E0= -.33686268E+03  d E =-.383843E-03
       N       E                     dE             d eps       ncg     rms          rms(c)
DAV:   1    -0.336994198850E+03   -0.39542E-03   -0.46730E-03  4016   0.706E-02    0.156E-02
DAV:   2    -0.336994219804E+03   -0.20954E-04   -0.98138E-05  4264   0.226E-02    0.415E-02
DAV:   3    -0.336994210259E+03    0.95447E-05   -0.24261E-05  4440   0.217E-02    0.288E-02
DAV:   4    -0.336994208988E+03    0.12713E-05   -0.11625E-05  2872   0.148E-02    0.235E-02
DAV:   5    -0.336994206526E+03    0.24618E-05   -0.56169E-06  2520   0.102E-02    0.132E-02
DAV:   6    -0.336994206043E+03    0.48316E-06   -0.29577E-06  2480   0.706E-03
  20 F= -.33699421E+03 E0= -.33686309E+03  d E =-.403391E-03
       N       E                     dE             d eps       ncg     rms          rms(c)
DAV:   1    -0.336994620313E+03   -0.41379E-03   -0.51675E-03  4016   0.743E-02    0.162E-02
DAV:   2    -0.336994639140E+03   -0.18827E-04   -0.10871E-04  4248   0.219E-02    0.382E-02
DAV:   3    -0.336994635316E+03    0.38246E-05   -0.27449E-05  4344   0.218E-02    0.345E-02
DAV:   4    -0.336994631242E+03    0.40739E-05   -0.14188E-05  3144   0.163E-02    0.240E-02
DAV:   5    -0.336994629211E+03    0.20310E-05   -0.77292E-06  2696   0.113E-02    0.151E-02
DAV:   6    -0.336994628216E+03    0.99447E-06   -0.30273E-06  2504   0.768E-03
  21 F= -.33699463E+03 E0= -.33686351E+03  d E =-.422173E-03
       N       E                     dE             d eps       ncg     rms          rms(c)
DAV:   1    -0.336995060532E+03   -0.43132E-03   -0.56955E-03  4016   0.779E-02    0.174E-02
DAV:   2    -0.336995086881E+03   -0.26349E-04   -0.12095E-04  4232   0.255E-02    0.468E-02
DAV:   3    -0.336995073933E+03    0.12947E-04   -0.29786E-05  4456   0.242E-02    0.306E-02
DAV:   4    -0.336995073249E+03    0.68457E-06   -0.14136E-05  3216   0.162E-02    0.268E-02
DAV:   5    -0.336995070002E+03    0.32468E-05   -0.72886E-06  2664   0.116E-02    0.149E-02
DAV:   6    -0.336995069332E+03    0.67004E-06   -0.36906E-06  2520   0.786E-03
  22 F= -.33699507E+03 E0= -.33686396E+03  d E =-.441116E-03
       N       E                     dE             d eps       ncg     rms          rms(c)
DAV:   1    -0.336995518878E+03   -0.44888E-03   -0.62341E-03  4016   0.815E-02    0.177E-02
DAV:   2    -0.336995540767E+03   -0.21888E-04   -0.13019E-04  4256   0.236E-02    0.405E-02
DAV:   3    -0.336995537172E+03    0.35950E-05   -0.31779E-05  4344   0.236E-02    0.381E-02
DAV:   4    -0.336995532124E+03    0.50481E-05   -0.17209E-05  3592   0.179E-02    0.262E-02
DAV:   5    -0.336995529717E+03    0.24065E-05   -0.92498E-06  2880   0.123E-02    0.167E-02
DAV:   6    -0.336995528503E+03    0.12142E-05   -0.37398E-06  2576   0.843E-03    0.907E-03
DAV:   7    -0.336995528763E+03   -0.25993E-06   -0.19515E-06  2352   0.669E-03
  23 F= -.33699553E+03 E0= -.33686444E+03  d E =-.459431E-03
       N       E                     dE             d eps       ncg     rms          rms(c)
DAV:   1    -0.336995994296E+03   -0.46579E-03   -0.67967E-03  4016   0.847E-02    0.152E-02
DAV:   2    -0.336996006170E+03   -0.11874E-04   -0.12061E-04  4288   0.127E-02    0.147E-02
DAV:   3    -0.336996015497E+03   -0.93263E-05   -0.16331E-05  3984   0.170E-02    0.396E-02
DAV:   4    -0.336996007965E+03    0.75316E-05   -0.14167E-05  2824   0.164E-02    0.212E-02
DAV:   5    -0.336996005489E+03    0.24763E-05   -0.54481E-06  2608   0.965E-03    0.109E-02
DAV:   6    -0.336996005452E+03    0.36554E-07   -0.23193E-06  2328   0.638E-03
  24 F= -.33699601E+03 E0= -.33686491E+03  d E =-.476689E-03
       N       E                     dE             d eps       ncg     rms          rms(c)
DAV:   1    -0.336996488843E+03   -0.48335E-03   -0.73798E-03  4016   0.883E-02    0.179E-02
DAV:   2    -0.336996516107E+03   -0.27265E-04   -0.14841E-04  4216   0.253E-02    0.457E-02
DAV:   3    -0.336996502922E+03    0.13186E-04   -0.25984E-05  4456   0.230E-02    0.250E-02
DAV:   4    -0.336996508127E+03   -0.52054E-05   -0.15759E-05  3168   0.169E-02    0.348E-02
DAV:   5    -0.336996501277E+03    0.68505E-05   -0.10689E-05  2776   0.140E-02    0.165E-02
DAV:   6    -0.336996500278E+03    0.99853E-06   -0.36472E-06  2456   0.816E-03
  25 F= -.33699650E+03 E0= -.33686542E+03  d E =-.494826E-03
       N       E                     dE             d eps       ncg     rms          rms(c)
DAV:   1    -0.336996999771E+03   -0.49849E-03   -0.79913E-03  4016   0.920E-02    0.190E-02
DAV:   2    -0.336997020032E+03   -0.20262E-04   -0.15588E-04  4296   0.220E-02    0.330E-02
DAV:   3    -0.336997024026E+03   -0.39933E-05   -0.28887E-05  4384   0.234E-02    0.438E-02
DAV:   4    -0.336997016444E+03    0.75815E-05   -0.21120E-05  3712   0.196E-02    0.272E-02
DAV:   5    -0.336997013868E+03    0.25763E-05   -0.10744E-05  3008   0.132E-02    0.186E-02
DAV:   6    -0.336997012222E+03    0.16454E-05   -0.44460E-06  2624   0.906E-03    0.932E-03
DAV:   7    -0.336997012985E+03   -0.76248E-06   -0.24495E-06  2440   0.731E-03
  26 F= -.33699701E+03 E0= -.33686591E+03  d E =-.512707E-03
       N       E                     dE             d eps       ncg     rms          rms(c)
DAV:   1    -0.336997526940E+03   -0.51472E-03   -0.86120E-03  4016   0.952E-02    0.174E-02
DAV:   2    -0.336997542686E+03   -0.15746E-04   -0.15496E-04  4240   0.151E-02    0.182E-02
DAV:   3    -0.336997547853E+03   -0.51664E-05   -0.16809E-05  4384   0.173E-02    0.333E-02
DAV:   4    -0.336997548593E+03   -0.74067E-06   -0.16638E-05  2968   0.176E-02    0.337E-02
DAV:   5    -0.336997541375E+03    0.72186E-05   -0.93256E-06  2752   0.134E-02    0.134E-02
DAV:   6    -0.336997541096E+03    0.27810E-06   -0.29954E-06  2320   0.724E-03
  27 F= -.33699754E+03 E0= -.33686645E+03  d E =-.528112E-03
       N       E                     dE             d eps       ncg     rms          rms(c)
DAV:   1    -0.336998071967E+03   -0.53059E-03   -0.92469E-03  4016   0.988E-02    0.213E-02
DAV:   2    -0.336998114240E+03   -0.42272E-04   -0.19950E-04  4248   0.323E-02    0.596E-02
DAV:   3    -0.336998090063E+03    0.24177E-04   -0.45161E-05  4424   0.291E-02    0.298E-02
DAV:   4    -0.336998095902E+03   -0.58389E-05   -0.20731E-05  3888   0.194E-02    0.393E-02
DAV:   5    -0.336998088162E+03    0.77391E-05   -0.14544E-05  3200   0.163E-02    0.207E-02
DAV:   6    -0.336998086456E+03    0.17065E-05   -0.55545E-06  2664   0.100E-02    0.116E-02
DAV:   7    -0.336998086393E+03    0.63235E-07   -0.28898E-06  2424   0.767E-03
  28 F= -.33699809E+03 E0= -.33686701E+03  d E =-.545296E-03
       N       E                     dE             d eps       ncg     rms          rms(c)
DAV:   1    -0.336998631933E+03   -0.54548E-03   -0.98989E-03  4016   0.102E-01    0.190E-02
DAV:   2    -0.336998651040E+03   -0.19107E-04   -0.17993E-04  4288   0.181E-02    0.222E-02
DAV:   3    -0.336998651903E+03   -0.86299E-06   -0.17748E-05  4384   0.188E-02    0.252E-02
DAV:   4    -0.336998659010E+03   -0.71074E-05   -0.15089E-05  3096   0.175E-02    0.405E-02
DAV:   5    -0.336998647862E+03    0.11148E-04   -0.12023E-05  2736   0.150E-02    0.116E-02
DAV:   6    -0.336998648433E+03   -0.57108E-06   -0.28251E-06  2344   0.759E-03
  29 F= -.33699865E+03 E0= -.33686756E+03  d E =-.562040E-03
       N       E                     dE             d eps       ncg     rms          rms(c)
DAV:   1    -0.336999208131E+03   -0.56027E-03   -0.10562E-02  4016   0.105E-01    0.231E-02
DAV:   2    -0.336999262203E+03   -0.54072E-04   -0.24877E-04  4312   0.357E-02    0.738E-02
DAV:   3    -0.336999228327E+03    0.33876E-04   -0.67803E-05  4416   0.319E-02    0.282E-02
DAV:   4    -0.336999239688E+03   -0.11360E-04   -0.25134E-05  4088   0.213E-02    0.483E-02
DAV:   5    -0.336999226039E+03    0.13649E-04   -0.19738E-05  3656   0.189E-02    0.190E-02
DAV:   6    -0.336999224578E+03    0.14608E-05   -0.45934E-06  2736   0.103E-02    0.101E-02
DAV:   7    -0.336999224943E+03   -0.36553E-06   -0.30809E-06  2544   0.810E-03
  30 F= -.33699922E+03 E0= -.33686814E+03  d E =-.576511E-03
       N       E                     dE             d eps       ncg     rms          rms(c)
DAV:   1    -0.336999798143E+03   -0.57357E-03   -0.11238E-02  4008   0.108E-01    0.204E-02
DAV:   2    -0.336999823970E+03   -0.25827E-04   -0.21018E-04  4232   0.213E-02    0.345E-02
DAV:   3    -0.336999820500E+03    0.34692E-05   -0.28256E-05  4368   0.210E-02    0.283E-02
DAV:   4    -0.336999825615E+03   -0.51147E-05   -0.16982E-05  3656   0.171E-02    0.371E-02
DAV:   5    -0.336999818263E+03    0.73524E-05   -0.12686E-05  2768   0.157E-02    0.203E-02
DAV:   6    -0.336999816417E+03    0.18457E-05   -0.43736E-06  2496   0.934E-03    0.929E-03
DAV:   7    -0.336999817300E+03   -0.88332E-06   -0.24373E-06  2456   0.742E-03
  31 F= -.33699982E+03 E0= -.33686876E+03  d E =-.592357E-03
       N       E                     dE             d eps       ncg     rms          rms(c)
DAV:   1    -0.337000402730E+03   -0.58631E-03   -0.11922E-02  4000   0.112E-01    0.203E-02
DAV:   2    -0.337000424267E+03   -0.21537E-04   -0.21641E-04  4280   0.169E-02    0.204E-02
DAV:   3    -0.337000431658E+03   -0.73918E-05   -0.22724E-05  4496   0.194E-02    0.371E-02
DAV:   4    -0.337000433627E+03   -0.19690E-05   -0.23234E-05  3504   0.205E-02    0.415E-02
DAV:   5    -0.337000422792E+03    0.10835E-04   -0.12053E-05  2896   0.155E-02    0.140E-02
DAV:   6    -0.337000423258E+03   -0.46667E-06   -0.46266E-06  2520   0.905E-03
  32 F= -.33700042E+03 E0= -.33686937E+03  d E =-.605958E-03
       N       E                     dE             d eps       ncg     rms          rms(c)
DAV:   1    -0.337001022904E+03   -0.60011E-03   -0.12586E-02  4000   0.115E-01    0.245E-02
DAV:   2    -0.337001067366E+03   -0.44462E-04   -0.26281E-04  4192   0.332E-02    0.565E-02
DAV:   3    -0.337001044981E+03    0.22385E-04   -0.44722E-05  4392   0.293E-02    0.252E-02
DAV:   4    -0.337001047930E+03   -0.29497E-05   -0.18494E-05  4272   0.166E-02    0.290E-02
DAV:   5    -0.337001047909E+03    0.21457E-07   -0.13772E-05  3136   0.160E-02    0.297E-02
DAV:   6    -0.337001043891E+03    0.40177E-05   -0.86624E-06  2504   0.130E-02    0.171E-02
DAV:   7    -0.337001043168E+03    0.72276E-06   -0.44979E-06  2680   0.933E-03
  33 F= -.33700104E+03 E0= -.33686997E+03  d E =-.619910E-03
       N       E                     dE             d eps       ncg     rms          rms(c)
DAV:   1    -0.337001654571E+03   -0.61068E-03   -0.13263E-02  4000   0.117E-01    0.223E-02
DAV:   2    -0.337001681187E+03   -0.26616E-04   -0.24636E-04  4256   0.221E-02    0.272E-02
DAV:   3    -0.337001687376E+03   -0.61888E-05   -0.30721E-05  4344   0.237E-02    0.420E-02
DAV:   4    -0.337001685368E+03    0.20080E-05   -0.25830E-05  3776   0.220E-02    0.378E-02
DAV:   5    -0.337001676947E+03    0.84208E-05   -0.10998E-05  3240   0.157E-02    0.152E-02
DAV:   6    -0.337001676677E+03    0.26979E-06   -0.45088E-06  2728   0.962E-03
  34 F= -.33700168E+03 E0= -.33687062E+03  d E =-.633509E-03
       N       E                     dE             d eps       ncg     rms          rms(c)
DAV:   1    -0.337002301357E+03   -0.62441E-03   -0.13945E-02  4000   0.121E-01    0.278E-02
DAV:   2    -0.337002383917E+03   -0.82560E-04   -0.34197E-04  4256   0.444E-02    0.927E-02
DAV:   3    -0.337002328702E+03    0.55216E-04   -0.10367E-04  4432   0.398E-02    0.340E-02
DAV:   4    -0.337002344258E+03   -0.15556E-04   -0.35802E-05  4328   0.256E-02    0.572E-02
DAV:   5    -0.337002325821E+03    0.18437E-04   -0.28096E-05  4184   0.225E-02    0.241E-02
DAV:   6    -0.337002323312E+03    0.25093E-05   -0.73267E-06  3040   0.124E-02    0.124E-02
DAV:   7    -0.337002323418E+03   -0.10613E-06   -0.37338E-06  3056   0.898E-03
  35 F= -.33700232E+03 E0= -.33687128E+03  d E =-.646741E-03
       N       E                     dE             d eps       ncg     rms          rms(c)
DAV:   1    -0.337002959383E+03   -0.63607E-03   -0.14615E-02  4000   0.123E-01    0.243E-02
DAV:   2    -0.337002999423E+03   -0.40040E-04   -0.28289E-04  4192   0.295E-02    0.459E-02
DAV:   3    -0.337002986040E+03    0.13383E-04   -0.31582E-05  4392   0.269E-02    0.261E-02
DAV:   4    -0.337003007148E+03   -0.21108E-04   -0.28624E-05  3944   0.236E-02    0.595E-02
DAV:   5    -0.337002983722E+03    0.23426E-04   -0.24542E-05  3480   0.215E-02    0.177E-02
DAV:   6    -0.337002984190E+03   -0.46747E-06   -0.70023E-06  2680   0.107E-02
  36 F= -.33700298E+03 E0= -.33687193E+03  d E =-.660772E-03
       N       E                     dE             d eps       ncg     rms          rms(c)
DAV:   1    -0.337003630723E+03   -0.64700E-03   -0.15255E-02  4000   0.126E-01    0.284E-02
DAV:   2    -0.337003694542E+03   -0.63819E-04   -0.34266E-04  4200   0.398E-02    0.741E-02
DAV:   3    -0.337003658791E+03    0.35751E-04   -0.79109E-05  4392   0.353E-02    0.314E-02
DAV:   4    -0.337003668761E+03   -0.99694E-05   -0.33252E-05  4264   0.224E-02    0.454E-02
DAV:   5    -0.337003663429E+03    0.53311E-05   -0.27464E-05  3800   0.225E-02    0.381E-02
DAV:   6    -0.337003655014E+03    0.84152E-05   -0.10762E-05  3320   0.151E-02    0.134E-02
DAV:   7    -0.337003656050E+03   -0.10362E-05   -0.45470E-06  3048   0.100E-02    0.142E-02
DAV:   8    -0.337003654953E+03    0.10973E-05   -0.26783E-06  2608   0.790E-03    0.659E-03
DAV:   9    -0.337003654850E+03    0.10334E-06   -0.12370E-06  2272   0.507E-03
  37 F= -.33700365E+03 E0= -.33687261E+03  d E =-.670660E-03
       N       E                     dE             d eps       ncg     rms          rms(c)
DAV:   1    -0.337004311440E+03   -0.65649E-03   -0.15963E-02  4000   0.128E-01    0.238E-02
DAV:   2    -0.337004341656E+03   -0.30216E-04   -0.28829E-04  4200   0.199E-02    0.296E-02
DAV:   3    -0.337004348331E+03   -0.66753E-05   -0.38373E-05  4544   0.235E-02    0.431E-02
DAV:   4    -0.337004351215E+03   -0.28840E-05   -0.26209E-05  3720   0.217E-02    0.457E-02
DAV:   5    -0.337004337237E+03    0.13979E-04   -0.15870E-05  2936   0.172E-02    0.138E-02
DAV:   6    -0.337004338388E+03   -0.11511E-05   -0.48725E-06  2912   0.940E-03    0.133E-02
DAV:   7    -0.337004337575E+03    0.81323E-06   -0.31011E-06  2688   0.788E-03
  38 F= -.33700434E+03 E0= -.33687329E+03  d E =-.682725E-03
       N       E                     dE             d eps       ncg     rms          rms(c)
DAV:   1    -0.337005003562E+03   -0.66517E-03   -0.16564E-02  4000   0.130E-01    0.253E-02
DAV:   2    -0.337005044010E+03   -0.40448E-04   -0.31473E-04  4184   0.270E-02    0.459E-02
DAV:   3    -0.337005035037E+03    0.89731E-05   -0.43682E-05  4424   0.262E-02    0.315E-02
DAV:   4    -0.337005033930E+03    0.11074E-05   -0.17220E-05  4112   0.152E-02    0.240E-02
DAV:   5    -0.337005032970E+03    0.95944E-06   -0.92868E-06  3160   0.140E-02
  39 F= -.33700503E+03 E0= -.33687399E+03  d E =-.695396E-03
       N       E                     dE             d eps       ncg     rms          rms(c)
DAV:   1    -0.337005707804E+03   -0.67387E-03   -0.17101E-02  4000   0.133E-01    0.358E-02
DAV:   2    -0.337006315958E+03   -0.60815E-03   -0.79830E-04  4488   0.102E-01    0.286E-01
DAV:   3    -0.337005721973E+03    0.59398E-03   -0.47313E-04  4664   0.940E-02    0.402E-02
DAV:   4    -0.337005741103E+03   -0.19130E-04   -0.40170E-05  4296   0.271E-02    0.391E-02
DAV:   5    -0.337005735609E+03    0.54941E-05   -0.21201E-05  4360   0.185E-02    0.246E-02
DAV:   6    -0.337005734786E+03    0.82314E-06   -0.12719E-05  3808   0.144E-02    0.195E-02
DAV:   7    -0.337005734988E+03   -0.20188E-06   -0.66812E-06  3008   0.107E-02
  40 F= -.33700573E+03 E0= -.33687468E+03  d E =-.702017E-03
       N       E                     dE             d eps       ncg     rms          rms(c)
DAV:   1    -0.337006416864E+03   -0.68208E-03   -0.17656E-02  4000   0.134E-01    0.268E-02
DAV:   2    -0.337006455470E+03   -0.38606E-04   -0.33172E-04  4176   0.259E-02    0.384E-02
DAV:   3    -0.337006464310E+03   -0.88399E-05   -0.41562E-05  4480   0.298E-02    0.542E-02
DAV:   4    -0.337006464208E+03    0.10221E-06   -0.45154E-05  4296   0.289E-02    0.523E-02
DAV:   5    -0.337006445874E+03    0.18334E-04   -0.18121E-05  3720   0.191E-02    0.137E-02
DAV:   6    -0.337006448816E+03   -0.29424E-05   -0.83179E-06  3056   0.114E-02    0.217E-02
DAV:   7    -0.337006447267E+03    0.15496E-05   -0.59112E-06  2744   0.971E-03    0.121E-02
DAV:   8    -0.337006446465E+03    0.80159E-06   -0.23947E-06  2520   0.710E-03
  41 F= -.33700645E+03 E0= -.33687541E+03  d E =-.711477E-03
       N       E                     dE             d eps       ncg     rms          rms(c)
DAV:   1    -0.337007137411E+03   -0.69014E-03   -0.18184E-02  4000   0.135E-01    0.263E-02
DAV:   2    -0.337007167913E+03   -0.30502E-04   -0.32967E-04  4176   0.199E-02    0.216E-02
DAV:   3    -0.337007174727E+03   -0.68147E-05   -0.27791E-05  4360   0.221E-02    0.350E-02
DAV:   4    -0.337007175421E+03   -0.69405E-06   -0.22763E-05  3992   0.205E-02    0.374E-02
DAV:   5    -0.337007169259E+03    0.61626E-05   -0.15456E-05  3032   0.172E-02    0.233E-02
DAV:   6    -0.337007168769E+03    0.48993E-06   -0.94986E-06  3216   0.124E-02
  42 F= -.33700717E+03 E0= -.33687614E+03  d E =-.722304E-03
       N       E                     dE             d eps       ncg     rms          rms(c)
DAV:   1    -0.337007865238E+03   -0.69598E-03   -0.18574E-02  4000   0.137E-01    0.317E-02
DAV:   2    -0.337007942079E+03   -0.76841E-04   -0.41386E-04  4192   0.430E-02    0.817E-02
DAV:   3    -0.337007901240E+03    0.40839E-04   -0.98534E-05  4384   0.397E-02    0.404E-02
DAV:   4    -0.337007925556E+03   -0.24316E-04   -0.50639E-05  4352   0.303E-02    0.690E-02
DAV:   5    -0.337007899845E+03    0.25710E-04   -0.40718E-05  4280   0.274E-02    0.326E-02
DAV:   6    -0.337007894998E+03    0.48477E-05   -0.12523E-05  3584   0.154E-02    0.143E-02
DAV:   7    -0.337007896033E+03   -0.10351E-05   -0.57116E-06  3376   0.107E-02    0.139E-02
DAV:   8    -0.337007895310E+03    0.72256E-06   -0.31668E-06  2808   0.890E-03
  43 F= -.33700790E+03 E0= -.33687686E+03  d E =-.726541E-03
       N       E                     dE             d eps       ncg     rms          rms(c)
DAV:   1    -0.337008597838E+03   -0.70181E-03   -0.19059E-02  4000   0.138E-01    0.279E-02
DAV:   2    -0.337008632567E+03   -0.34730E-04   -0.34873E-04  4176   0.225E-02    0.282E-02
DAV:   3    -0.337008639327E+03   -0.67595E-05   -0.32738E-05  4464   0.262E-02    0.401E-02
DAV:   4    -0.337008641486E+03   -0.21586E-05   -0.23895E-05  4256   0.226E-02    0.456E-02
DAV:   5    -0.337008629331E+03    0.12154E-04   -0.17033E-05  3152   0.179E-02    0.172E-02
DAV:   6    -0.337008632172E+03   -0.28401E-05   -0.89227E-06  3192   0.126E-02    0.231E-02
DAV:   7    -0.337008630171E+03    0.20011E-05   -0.77367E-06  2872   0.110E-02    0.134E-02
DAV:   8    -0.337008629286E+03    0.88489E-06   -0.31440E-06  2472   0.743E-03
  44 F= -.33700863E+03 E0= -.33687760E+03  d E =-.733975E-03
       N       E                     dE             d eps       ncg     rms          rms(c)
DAV:   1    -0.337009337150E+03   -0.70698E-03   -0.19365E-02  4000   0.138E-01    0.284E-02
DAV:   2    -0.337009371409E+03   -0.34259E-04   -0.35586E-04  4136   0.223E-02    0.273E-02
DAV:   3    -0.337009379478E+03   -0.80685E-05   -0.35981E-05  4464   0.262E-02    0.415E-02
DAV:   4    -0.337009378579E+03    0.89819E-06   -0.26942E-05  4312   0.227E-02    0.417E-02
DAV:   5    -0.337009370639E+03    0.79407E-05   -0.17678E-05  3256   0.181E-02    0.236E-02
DAV:   6    -0.337009371186E+03   -0.54760E-06   -0.12123E-05  3552   0.138E-02    0.228E-02
DAV:   7    -0.337009369730E+03    0.14561E-05   -0.73317E-06  2888   0.112E-02    0.136E-02
DAV:   8    -0.337009368624E+03    0.11067E-05   -0.26385E-06  2584   0.789E-03    0.595E-03
DAV:   9    -0.337009368619E+03    0.41764E-08   -0.91401E-07  2232   0.456E-03
  45 F= -.33700937E+03 E0= -.33687835E+03  d E =-.739334E-03
       N       E                     dE             d eps       ncg     rms          rms(c)
DAV:   1    -0.337010080411E+03   -0.71179E-03   -0.19652E-02  4000   0.138E-01    0.286E-02
DAV:   2    -0.337010110623E+03   -0.30212E-04   -0.35123E-04  4096   0.172E-02    0.182E-02
DAV:   3    -0.337010127323E+03   -0.16700E-04   -0.23443E-05  4552   0.206E-02    0.487E-02
DAV:   4    -0.337010117442E+03    0.98813E-05   -0.29091E-05  3800   0.233E-02    0.338E-02
DAV:   5    -0.337010113356E+03    0.40855E-05   -0.12508E-05  4024   0.164E-02    0.204E-02
DAV:   6    -0.337010113353E+03    0.33542E-08   -0.72826E-06  3448   0.119E-02
  46 F= -.33701011E+03 E0= -.33687909E+03  d E =-.744733E-03
       N       E                     dE             d eps       ncg     rms          rms(c)
DAV:   1    -0.337010825296E+03   -0.71194E-03   -0.19754E-02  4000   0.139E-01    0.331E-02
DAV:   2    -0.337010904846E+03   -0.79550E-04   -0.43611E-04  4120   0.423E-02    0.860E-02
DAV:   3    -0.337010859567E+03    0.45279E-04   -0.99943E-05  4408   0.390E-02    0.354E-02
DAV:   4    -0.337010902139E+03   -0.42573E-04   -0.57369E-05  4488   0.330E-02    0.840E-02
DAV:   5    -0.337010858578E+03    0.43561E-04   -0.48760E-05  4368   0.300E-02    0.272E-02
DAV:   6    -0.337010856850E+03    0.17284E-05   -0.12022E-05  3800   0.158E-02    0.168E-02
DAV:   7    -0.337010857002E+03   -0.15238E-06   -0.37682E-06  2760   0.920E-03
  47 F= -.33701086E+03 E0= -.33687983E+03  d E =-.743649E-03
       N       E                     dE             d eps       ncg     rms          rms(c)
DAV:   1    -0.337011568625E+03   -0.71178E-03   -0.19852E-02  4000   0.139E-01    0.319E-02
DAV:   2    -0.337011617056E+03   -0.48431E-04   -0.38200E-04  4128   0.322E-02    0.497E-02
DAV:   3    -0.337011603392E+03    0.13664E-04   -0.45682E-05  4424   0.320E-02    0.334E-02
DAV:   4    -0.337011604670E+03   -0.12784E-05   -0.19953E-05  4304   0.182E-02    0.310E-02
DAV:   5    -0.337011606304E+03   -0.16337E-05   -0.21176E-05  3512   0.191E-02    0.343E-02
DAV:   6    -0.337011605429E+03    0.87503E-06   -0.16039E-05  3176   0.177E-02    0.311E-02
DAV:   7    -0.337011601870E+03    0.35588E-05   -0.11566E-05  3120   0.138E-02    0.171E-02
DAV:   8    -0.337011600195E+03    0.16746E-05   -0.42923E-06  2736   0.930E-03    0.728E-03
DAV:   9    -0.337011600060E+03    0.13494E-06   -0.14214E-06  2216   0.534E-03
  48 F= -.33701160E+03 E0= -.33688059E+03  d E =-.743058E-03
       N       E                     dE             d eps       ncg     rms          rms(c)
DAV:   1    -0.337012310622E+03   -0.71043E-03   -0.19862E-02  4000   0.137E-01    0.310E-02
DAV:   2    -0.337012340459E+03   -0.29837E-04   -0.35818E-04  4064   0.182E-02    0.207E-02
DAV:   3    -0.337012347311E+03   -0.68526E-05   -0.22418E-05  4496   0.192E-02    0.331E-02
DAV:   4    -0.337012343045E+03    0.42662E-05   -0.21822E-05  4256   0.195E-02    0.242E-02
DAV:   5    -0.337012347352E+03   -0.43073E-05   -0.15404E-05  4024   0.162E-02    0.322E-02
DAV:   6    -0.337012348792E+03   -0.14399E-05   -0.15924E-05  2976   0.176E-02    0.338E-02
DAV:   7    -0.337012342067E+03    0.67251E-05   -0.10932E-05  2816   0.140E-02    0.135E-02
DAV:   8    -0.337012341113E+03    0.95445E-06   -0.28875E-06  2568   0.773E-03
  49 F= -.33701234E+03 E0= -.33688134E+03  d E =-.741052E-03
       N       E                     dE             d eps       ncg     rms          rms(c)
DAV:   1    -0.337013046407E+03   -0.70434E-03   -0.19814E-02  4000   0.136E-01    0.319E-02
DAV:   2    -0.337013081389E+03   -0.34982E-04   -0.35923E-04  4064   0.247E-02    0.344E-02
DAV:   3    -0.337013094499E+03   -0.13110E-04   -0.51032E-05  4456   0.310E-02    0.536E-02
DAV:   4    -0.337013108102E+03   -0.13603E-04   -0.59048E-05  4488   0.332E-02    0.714E-02
DAV:   5    -0.337013075864E+03    0.32238E-04   -0.31782E-05  4280   0.260E-02    0.204E-02
DAV:   6    -0.337013079243E+03   -0.33785E-05   -0.13983E-05  4032   0.150E-02    0.251E-02
DAV:   7    -0.337013077775E+03    0.14680E-05   -0.10318E-05  3328   0.129E-02    0.170E-02
DAV:   8    -0.337013075952E+03    0.18225E-05   -0.43106E-06  3000   0.910E-03    0.700E-03
DAV:   9    -0.337013075875E+03    0.77423E-07   -0.13600E-06  2208   0.510E-03
  50 F= -.33701308E+03 E0= -.33688207E+03  d E =-.734762E-03
       N       E                     dE             d eps       ncg     rms          rms(c)
DAV:   1    -0.337013772110E+03   -0.69616E-03   -0.19481E-02  4000   0.134E-01    0.329E-02
DAV:   2    -0.337013799990E+03   -0.27880E-04   -0.35063E-04  4048   0.178E-02    0.216E-02
DAV:   3    -0.337013808646E+03   -0.86560E-05   -0.27862E-05  4424   0.193E-02    0.398E-02
DAV:   4    -0.337013804301E+03    0.43445E-05   -0.29701E-05  4280   0.210E-02    0.301E-02
DAV:   5    -0.337013816802E+03   -0.12501E-04   -0.25058E-05  3944   0.218E-02    0.505E-02
DAV:   6    -0.337013802560E+03    0.14243E-04   -0.21990E-05  3800   0.202E-02    0.204E-02
DAV:   7    -0.337013800486E+03    0.20737E-05   -0.58477E-06  3080   0.107E-02    0.834E-03
DAV:   8    -0.337013800492E+03   -0.64392E-08   -0.23996E-06  2432   0.661E-03
  51 F= -.33701380E+03 E0= -.33688280E+03  d E =-.724617E-03
       N       E                     dE             d eps       ncg     rms          rms(c)
DAV:   1    -0.337014481803E+03   -0.68132E-03   -0.19319E-02  4000   0.132E-01    0.331E-02
DAV:   2    -0.337014511846E+03   -0.30043E-04   -0.33952E-04  4024   0.216E-02    0.315E-02
DAV:   3    -0.337014539510E+03   -0.27664E-04   -0.66745E-05  4496   0.324E-02    0.708E-02
DAV:   4    -0.337014535613E+03    0.38971E-05   -0.65344E-05  4512   0.345E-02    0.649E-02
DAV:   5    -0.337014509705E+03    0.25907E-04   -0.35996E-05  4240   0.251E-02    0.227E-02
DAV:   6    -0.337014510897E+03   -0.11917E-05   -0.12647E-05  3984   0.149E-02    0.193E-02
DAV:   7    -0.337014509848E+03    0.10493E-05   -0.68441E-06  3296   0.120E-02    0.134E-02
DAV:   8    -0.337014508703E+03    0.11448E-05   -0.31124E-06  2896   0.833E-03    0.590E-03
DAV:   9    -0.337014508747E+03   -0.43998E-07   -0.10246E-06  2208   0.438E-03
  52 F= -.33701451E+03 E0= -.33688351E+03  d E =-.708255E-03
       N       E                     dE             d eps       ncg     rms          rms(c)
DAV:   1    -0.337015167765E+03   -0.65906E-03   -0.18451E-02  4000   0.127E-01    0.353E-02
DAV:   2    -0.337015194861E+03   -0.27096E-04   -0.34071E-04  4072   0.199E-02    0.286E-02
DAV:   3    -0.337015215291E+03   -0.20430E-04   -0.55680E-05  4416   0.291E-02    0.614E-02
DAV:   4    -0.337015195057E+03    0.20234E-04   -0.45955E-05  4400   0.261E-02    0.270E-02
DAV:   5    -0.337015214911E+03   -0.19853E-04   -0.30656E-05  4224   0.241E-02    0.588E-02
DAV:   6    -0.337015195431E+03    0.19479E-04   -0.28917E-05  4144   0.231E-02    0.232E-02
DAV:   7    -0.337015192881E+03    0.25509E-05   -0.76405E-06  3272   0.128E-02    0.109E-02
DAV:   8    -0.337015192515E+03    0.36547E-06   -0.34317E-06  2888   0.821E-03
  53 F= -.33701519E+03 E0= -.33688420E+03  d E =-.683768E-03
       N       E                     dE             d eps       ncg     rms          rms(c)
DAV:   1    -0.337015813661E+03   -0.62078E-03   -0.18126E-02  4000   0.126E-01    0.341E-02
DAV:   2    -0.337015846441E+03   -0.32780E-04   -0.31585E-04  4016   0.263E-02    0.445E-02
DAV:   3    -0.337015857375E+03   -0.10934E-04   -0.72559E-05  4352   0.336E-02    0.608E-02
DAV:   4    -0.337015878526E+03   -0.21151E-04   -0.72717E-05  4592   0.365E-02    0.798E-02
DAV:   5    -0.337015838386E+03    0.40140E-04   -0.48917E-05  4408   0.298E-02    0.260E-02
DAV:   6    -0.337015837708E+03    0.67785E-06   -0.12647E-05  4032   0.159E-02    0.182E-02
DAV:   7    -0.337015838349E+03   -0.64078E-06   -0.71274E-06  3504   0.125E-02
  54 F= -.33701584E+03 E0= -.33688482E+03  d E =-.645834E-03
       N       E                     dE             d eps       ncg     rms          rms(c)
DAV:   1    -0.337016380009E+03   -0.54230E-03   -0.14825E-02  4000   0.110E-01    0.400E-02
DAV:   2    -0.337016410311E+03   -0.30302E-04   -0.34102E-04  4080   0.260E-02    0.408E-02
DAV:   3    -0.337016431299E+03   -0.20988E-04   -0.75487E-05  4432   0.373E-02    0.685E-02
DAV:   4    -0.337016440831E+03   -0.95320E-05   -0.81198E-05  4424   0.386E-02    0.799E-02
DAV:   5    -0.337016401632E+03    0.39199E-04   -0.49549E-05  4384   0.314E-02    0.293E-02
DAV:   6    -0.337016408361E+03   -0.67296E-05   -0.28567E-05  4264   0.207E-02    0.375E-02
DAV:   7    -0.337016400650E+03    0.77116E-05   -0.16818E-05  4072   0.171E-02    0.178E-02
DAV:   8    -0.337016398733E+03    0.19164E-05   -0.57149E-06  3280   0.106E-02    0.815E-03
DAV:   9    -0.337016398496E+03    0.23716E-06   -0.13207E-06  2296   0.478E-03
  55 F= -.33701640E+03 E0= -.33688540E+03  d E =-.560147E-03
       N       E                     dE             d eps       ncg     rms          rms(c)
DAV:   1    -0.337016805975E+03   -0.40724E-03   -0.11516E-02  4000   0.975E-02    0.301E-02
DAV:   2    -0.337016825453E+03   -0.19478E-04   -0.20450E-04  4064   0.208E-02    0.359E-02
DAV:   3    -0.337016849478E+03   -0.24024E-04   -0.55517E-05  4400   0.321E-02    0.692E-02
DAV:   4    -0.337016839186E+03    0.10292E-04   -0.59403E-05  4488   0.333E-02    0.566E-02
DAV:   5    -0.337016821433E+03    0.17753E-04   -0.32456E-05  4376   0.235E-02    0.257E-02
DAV:   6    -0.337016818762E+03    0.26712E-05   -0.12313E-05  4160   0.145E-02    0.155E-02
DAV:   7    -0.337016819150E+03   -0.38859E-06   -0.64314E-06  3512   0.111E-02
  56 F= -.33701682E+03 E0= -.33688581E+03  d E =-.420654E-03
       N       E                     dE             d eps       ncg     rms          rms(c)
DAV:   1    -0.337017086608E+03   -0.26785E-03   -0.44755E-03  4000   0.566E-02    0.283E-02
DAV:   2    -0.337017100074E+03   -0.13466E-04   -0.14320E-04  4096   0.196E-02    0.314E-02
DAV:   3    -0.337017104328E+03   -0.42544E-05   -0.33126E-05  4384   0.264E-02    0.409E-02
DAV:   4    -0.337017101919E+03    0.24090E-05   -0.25742E-05  4224   0.219E-02    0.399E-02
DAV:   5    -0.337017096120E+03    0.57994E-05   -0.19884E-05  3408   0.192E-02    0.272E-02
DAV:   6    -0.337017096861E+03   -0.74082E-06   -0.16478E-05  3976   0.161E-02    0.278E-02
DAV:   7    -0.337017092701E+03    0.41600E-05   -0.93884E-06  3072   0.125E-02    0.135E-02
DAV:   8    -0.337017091428E+03    0.12728E-05   -0.28431E-06  2408   0.770E-03    0.517E-03
DAV:   9    -0.337017091376E+03    0.51499E-07   -0.74960E-07  2208   0.364E-03
  57 F= -.33701709E+03 E0= -.33688610E+03  d E =-.272226E-03
       N       E                     dE             d eps       ncg     rms          rms(c)
DAV:   1    -0.337017303163E+03   -0.21174E-03   -0.29297E-03  4000   0.491E-02    0.151E-02
DAV:   2    -0.337017307345E+03   -0.41817E-05   -0.47788E-05  4024   0.948E-03    0.161E-02
DAV:   3    -0.337017316819E+03   -0.94737E-05   -0.15792E-05  3168   0.173E-02    0.402E-02
DAV:   4    -0.337017309660E+03    0.71583E-05   -0.14931E-05  2880   0.170E-02    0.233E-02
DAV:   5    -0.337017306310E+03    0.33506E-05   -0.46679E-06  2528   0.104E-02    0.917E-03
DAV:   6    -0.337017306914E+03   -0.60461E-06   -0.27209E-06  2400   0.674E-03
  58 F= -.33701731E+03 E0= -.33688631E+03  d E =-.215538E-03
       N       E                     dE             d eps       ncg     rms          rms(c)
DAV:   1    -0.337017501269E+03   -0.19496E-03   -0.24920E-03  4000   0.451E-02    0.171E-02
DAV:   2    -0.337017509328E+03   -0.80597E-05   -0.55630E-05  4056   0.158E-02    0.291E-02
DAV:   3    -0.337017507605E+03    0.17231E-05   -0.20125E-05  4232   0.182E-02    0.271E-02
DAV:   4    -0.337017512624E+03   -0.50193E-05   -0.15882E-05  3048   0.174E-02    0.376E-02
DAV:   5    -0.337017504082E+03    0.85425E-05   -0.11103E-05  2808   0.144E-02    0.144E-02
DAV:   6    -0.337017504126E+03   -0.43845E-07   -0.36838E-06  2544   0.861E-03
  59 F= -.33701750E+03 E0= -.33688653E+03  d E =-.197211E-03
       N       E                     dE             d eps       ncg     rms          rms(c)
DAV:   1    -0.337017685596E+03   -0.18151E-03   -0.25745E-03  4000   0.465E-02    0.190E-02
DAV:   2    -0.337017701413E+03   -0.15817E-04   -0.67475E-05  4136   0.238E-02    0.418E-02
DAV:   3    -0.337017690144E+03    0.11269E-04   -0.26038E-05  4272   0.232E-02    0.257E-02
DAV:   4    -0.337017695709E+03   -0.55650E-05   -0.17201E-05  3472   0.176E-02    0.375E-02
DAV:   5    -0.337017687664E+03    0.80449E-05   -0.11050E-05  3048   0.150E-02    0.153E-02
DAV:   6    -0.337017688072E+03   -0.40829E-06   -0.51540E-06  2768   0.959E-03
  60 F= -.33701769E+03 E0= -.33688670E+03  d E =-.183947E-03
       N       E                     dE             d eps       ncg     rms          rms(c)
DAV:   1    -0.337017854497E+03   -0.16683E-03   -0.26444E-03  4000   0.474E-02    0.206E-02
DAV:   2    -0.337017875731E+03   -0.21233E-04   -0.78797E-05  4280   0.252E-02    0.524E-02
DAV:   3    -0.337017859433E+03    0.16298E-04   -0.39741E-05  4280   0.256E-02    0.274E-02
DAV:   4    -0.337017869545E+03   -0.10112E-04   -0.21824E-05  3872   0.204E-02    0.461E-02
DAV:   5    -0.337017856654E+03    0.12891E-04   -0.16429E-05  3232   0.173E-02    0.171E-02
DAV:   6    -0.337017856526E+03    0.12804E-06   -0.47975E-06  2912   0.998E-03
  61 F= -.33701786E+03 E0= -.33688688E+03  d E =-.168454E-03
       N       E                     dE             d eps       ncg     rms          rms(c)
DAV:   1    -0.337018007115E+03   -0.15046E-03   -0.27352E-03  4000   0.483E-02    0.206E-02
DAV:   2    -0.337018023204E+03   -0.16089E-04   -0.75928E-05  4232   0.254E-02    0.423E-02
DAV:   3    -0.337018011383E+03    0.11821E-04   -0.29508E-05  4200   0.244E-02    0.259E-02
DAV:   4    -0.337018017665E+03   -0.62815E-05   -0.18868E-05  3792   0.183E-02    0.392E-02
DAV:   5    -0.337018009651E+03    0.80137E-05   -0.13238E-05  3064   0.162E-02    0.189E-02
DAV:   6    -0.337018009105E+03    0.54571E-06   -0.59365E-06  2792   0.104E-02
  62 F= -.33701801E+03 E0= -.33688703E+03  d E =-.152579E-03
       N       E                     dE             d eps       ncg     rms          rms(c)
DAV:   1    -0.337018140803E+03   -0.13115E-03   -0.28558E-03  4000   0.498E-02    0.225E-02
DAV:   2    -0.337018178392E+03   -0.37589E-04   -0.10447E-04  4312   0.325E-02    0.704E-02
DAV:   3    -0.337018143960E+03    0.34432E-04   -0.57719E-05  4344   0.309E-02    0.246E-02
DAV:   4    -0.337018156470E+03   -0.12511E-04   -0.22537E-05  4088   0.204E-02    0.476E-02
DAV:   5    -0.337018143668E+03    0.12802E-04   -0.18730E-05  3328   0.186E-02    0.211E-02
DAV:   6    -0.337018142367E+03    0.13013E-05   -0.59093E-06  2936   0.109E-02    0.129E-02
DAV:   7    -0.337018142568E+03   -0.20095E-06   -0.31106E-06  2736   0.824E-03
  63 F= -.33701814E+03 E0= -.33688715E+03  d E =-.133463E-03
       N       E                     dE             d eps       ncg     rms          rms(c)
DAV:   1    -0.337018253214E+03   -0.11085E-03   -0.30082E-03  4000   0.506E-02    0.168E-02
DAV:   2    -0.337018257037E+03   -0.38230E-05   -0.54944E-05  4088   0.100E-02    0.151E-02
DAV:   3    -0.337018263463E+03   -0.64264E-05   -0.14198E-05  4040   0.162E-02    0.342E-02
DAV:   4    -0.337018260767E+03    0.26962E-05   -0.14664E-05  2816   0.167E-02    0.281E-02
DAV:   5    -0.337018256569E+03    0.41978E-05   -0.76315E-06  2672   0.121E-02    0.137E-02
DAV:   6    -0.337018256945E+03   -0.37586E-06   -0.46052E-06  2456   0.837E-03
  64 F= -.33701826E+03 E0= -.33688726E+03  d E =-.114377E-03
       N       E                     dE             d eps       ncg     rms          rms(c)
DAV:   1    -0.337018346827E+03   -0.90258E-04   -0.31513E-03  4000   0.524E-02    0.188E-02
DAV:   2    -0.337018359009E+03   -0.12181E-04   -0.70675E-05  4096   0.198E-02    0.353E-02
DAV:   3    -0.337018354781E+03    0.42281E-05   -0.25277E-05  4240   0.219E-02    0.313E-02
DAV:   4    -0.337018357630E+03   -0.28492E-05   -0.18651E-05  3376   0.187E-02    0.363E-02
DAV:   5    -0.337018350593E+03    0.70373E-05   -0.11901E-05  2904   0.145E-02    0.171E-02
DAV:   6    -0.337018350106E+03    0.48678E-06   -0.54597E-06  2680   0.953E-03
  65 F= -.33701835E+03 E0= -.33688735E+03  d E =-.931607E-04
       N       E                     dE             d eps       ncg     rms          rms(c)
DAV:   1    -0.337018419187E+03   -0.68594E-04   -0.33520E-03  4000   0.547E-02    0.202E-02
DAV:   2    -0.337018435001E+03   -0.15814E-04   -0.82778E-05  4072   0.237E-02    0.403E-02
DAV:   3    -0.337018425677E+03    0.93240E-05   -0.26931E-05  4280   0.236E-02    0.284E-02
DAV:   4    -0.337018431995E+03   -0.63174E-05   -0.20096E-05  3608   0.189E-02    0.402E-02
DAV:   5    -0.337018423032E+03    0.89628E-05   -0.14349E-05  3136   0.162E-02    0.180E-02
DAV:   6    -0.337018422915E+03    0.11671E-06   -0.59966E-06  2760   0.102E-02
  66 F= -.33701842E+03 E0= -.33688742E+03  d E =-.728091E-04
       N       E                     dE             d eps       ncg     rms          rms(c)
DAV:   1    -0.337018469575E+03   -0.46544E-04   -0.35769E-03  4000   0.575E-02    0.219E-02
DAV:   2    -0.337018495407E+03   -0.25831E-04   -0.99815E-05  4096   0.279E-02    0.548E-02
DAV:   3    -0.337018476347E+03    0.19060E-04   -0.41783E-05  4360   0.276E-02    0.295E-02
DAV:   4    -0.337018486323E+03   -0.99758E-05   -0.24069E-05  3832   0.210E-02    0.465E-02
DAV:   5    -0.337018473970E+03    0.12353E-04   -0.18604E-05  3400   0.181E-02    0.197E-02
DAV:   6    -0.337018473435E+03    0.53503E-06   -0.63149E-06  2968   0.108E-02
  67 F= -.33701847E+03 E0= -.33688746E+03  d E =-.505197E-04
       N       E                     dE             d eps       ncg     rms          rms(c)
DAV:   1    -0.337018497942E+03   -0.23972E-04   -0.38200E-03  4000   0.600E-02    0.220E-02
DAV:   2    -0.337018518980E+03   -0.21038E-04   -0.10353E-04  4048   0.275E-02    0.463E-02
DAV:   3    -0.337018504816E+03    0.14164E-04   -0.34228E-05  4296   0.263E-02    0.282E-02
DAV:   4    -0.337018512502E+03   -0.76867E-05   -0.21991E-05  3904   0.197E-02    0.422E-02
DAV:   5    -0.337018503375E+03    0.91277E-05   -0.16788E-05  3272   0.175E-02    0.215E-02
DAV:   6    -0.337018502309E+03    0.10655E-05   -0.69835E-06  2808   0.111E-02    0.147E-02
DAV:   7    -0.337018502288E+03    0.21711E-07   -0.41229E-06  2576   0.894E-03
  68 F= -.33701850E+03 E0= -.33688752E+03  d E =-.288528E-04
       N       E                     dE             d eps       ncg     rms          rms(c)
DAV:   1    -0.337018504038E+03   -0.17283E-05   -0.40964E-03  4000   0.618E-02    0.177E-02
DAV:   2    -0.337018510258E+03   -0.62208E-05   -0.78671E-05  4032   0.119E-02    0.162E-02
DAV:   3    -0.337018512971E+03   -0.27123E-05   -0.14316E-05  4264   0.153E-02    0.250E-02
DAV:   4    -0.337018510289E+03    0.26820E-05   -0.87772E-06  3056   0.123E-02    0.164E-02
DAV:   5    -0.337018511833E+03   -0.15441E-05   -0.63505E-06  2576   0.109E-02    0.213E-02
DAV:   6    -0.337018510647E+03    0.11860E-05   -0.54251E-06  2392   0.103E-02    0.158E-02
DAV:   7    -0.337018509931E+03    0.71604E-06   -0.26442E-06  2368   0.732E-03
  69 F= -.33701851E+03 E0= -.33688750E+03  d E =-.764324E-05
       N       E                     dE             d eps       ncg     rms          rms(c)
DAV:   1    -0.337018490253E+03    0.20394E-04   -0.43941E-03  4000   0.642E-02    0.174E-02
DAV:   2    -0.337018497831E+03   -0.75775E-05   -0.82034E-05  4016   0.129E-02    0.191E-02
DAV:   3    -0.337018500118E+03   -0.22875E-05   -0.15213E-05  4392   0.163E-02    0.269E-02
DAV:   4    -0.337018504190E+03   -0.40721E-05   -0.14455E-05  2960   0.164E-02    0.363E-02
DAV:   5    -0.337018496274E+03    0.79166E-05   -0.94563E-06  2704   0.139E-02    0.130E-02
DAV:   6    -0.337018497161E+03   -0.88784E-06   -0.41601E-06  2376   0.867E-03
  70 F= -.33701850E+03 E0= -.33688749E+03  d E =0.127693E-04
       N       E                     dE             d eps       ncg     rms          rms(c)
DAV:   1    -0.337018456011E+03    0.40263E-04   -0.46830E-03  4000   0.671E-02    0.200E-02
DAV:   2    -0.337018475809E+03   -0.19798E-04   -0.11201E-04  4056   0.237E-02    0.436E-02
DAV:   3    -0.337018463973E+03    0.11837E-04   -0.32606E-05  4400   0.229E-02    0.238E-02
DAV:   4    -0.337018470615E+03   -0.66422E-05   -0.15642E-05  3760   0.168E-02    0.372E-02
DAV:   5    -0.337018464995E+03    0.56196E-05   -0.14395E-05  2888   0.164E-02    0.235E-02
DAV:   6    -0.337018462487E+03    0.25085E-05   -0.60393E-06  2704   0.110E-02    0.115E-02
DAV:   7    -0.337018462927E+03   -0.44031E-06   -0.28877E-06  2496   0.783E-03
  71 F= -.33701846E+03 E0= -.33688748E+03  d E =0.342345E-04
       N       E                     dE             d eps       ncg     rms          rms(c)
DAV:   1    -0.337018401133E+03    0.61354E-04   -0.50250E-03  4000   0.695E-02    0.178E-02
DAV:   2    -0.337018409847E+03   -0.87147E-05   -0.96431E-05  4056   0.141E-02    0.183E-02
DAV:   3    -0.337018413626E+03   -0.37784E-05   -0.16032E-05  4216   0.173E-02    0.295E-02
DAV:   4    -0.337018415420E+03   -0.17939E-05   -0.16466E-05  2992   0.175E-02    0.346E-02
DAV:   5    -0.337018408617E+03    0.68022E-05   -0.79897E-06  2928   0.136E-02    0.135E-02
DAV:   6    -0.337018408747E+03   -0.12954E-06   -0.36541E-06  2584   0.837E-03
  72 F= -.33701841E+03 E0= -.33688741E+03  d E =0.541800E-04
       N       E                     dE             d eps       ncg     rms          rms(c)
DAV:   1    -0.337018327631E+03    0.80986E-04   -0.53638E-03  4000   0.723E-02    0.214E-02
DAV:   2    -0.337018367029E+03   -0.39397E-04   -0.14763E-04  4152   0.317E-02    0.677E-02
DAV:   3    -0.337018337563E+03    0.29465E-04   -0.54389E-05  4432   0.296E-02    0.274E-02
DAV:   4    -0.337018346367E+03   -0.88041E-05   -0.20575E-05  3912   0.200E-02    0.439E-02
DAV:   5    -0.337018335766E+03    0.10602E-04   -0.16537E-05  3216   0.169E-02    0.175E-02
DAV:   6    -0.337018334989E+03    0.77720E-06   -0.46560E-06  2824   0.997E-03
  73 F= -.33701833E+03 E0= -.33688735E+03  d E =0.737582E-04
       N       E                     dE             d eps       ncg     rms          rms(c)
DAV:   1    -0.337018234733E+03    0.10103E-03   -0.57249E-03  4000   0.750E-02    0.209E-02
DAV:   2    -0.337018251580E+03   -0.16847E-04   -0.12514E-04  4080   0.235E-02    0.348E-02
DAV:   3    -0.337018244930E+03    0.66496E-05   -0.22974E-05  4248   0.224E-02    0.249E-02
DAV:   4    -0.337018250519E+03   -0.55881E-05   -0.17406E-05  3752   0.173E-02    0.361E-02
DAV:   5    -0.337018244977E+03    0.55419E-05   -0.14281E-05  2920   0.164E-02    0.229E-02
DAV:   6    -0.337018243275E+03    0.17019E-05   -0.58734E-06  2848   0.109E-02    0.144E-02
DAV:   7    -0.337018243280E+03   -0.56680E-08   -0.38824E-06  2432   0.829E-03
  74 F= -.33701824E+03 E0= -.33688723E+03  d E =0.917084E-04
       N       E                     dE             d eps       ncg     rms          rms(c)
DAV:   1    -0.337018123485E+03    0.11979E-03   -0.61212E-03  4000   0.775E-02    0.189E-02
DAV:   2    -0.337018139185E+03   -0.15699E-04   -0.12436E-04  4040   0.195E-02    0.302E-02
DAV:   3    -0.337018142171E+03   -0.29862E-05   -0.30447E-05  4456   0.227E-02    0.398E-02
DAV:   4    -0.337018137273E+03    0.48976E-05   -0.17383E-05  3840   0.189E-02    0.307E-02
DAV:   5    -0.337018133501E+03    0.37721E-05   -0.79056E-06  2904   0.127E-02    0.162E-02
DAV:   6    -0.337018132862E+03    0.63881E-06   -0.46691E-06  2576   0.877E-03
  75 F= -.33701813E+03 E0= -.33688713E+03  d E =0.110418E-03
       N       E                     dE             d eps       ncg     rms          rms(c)
DAV:   1    -0.337017996218E+03    0.13728E-03   -0.65048E-03  4000   0.801E-02    0.220E-02
DAV:   2    -0.337018035234E+03   -0.39016E-04   -0.15739E-04  4136   0.326E-02    0.612E-02
DAV:   3    -0.337018005958E+03    0.29276E-04   -0.41080E-05  4464   0.294E-02    0.235E-02
DAV:   4    -0.337018017832E+03   -0.11874E-04   -0.19511E-05  4056   0.191E-02    0.456E-02
DAV:   5    -0.337018008070E+03    0.97616E-05   -0.19180E-05  3176   0.186E-02    0.236E-02
DAV:   6    -0.337018005610E+03    0.24603E-05   -0.72228E-06  2792   0.111E-02    0.113E-02
DAV:   7    -0.337018006232E+03   -0.62211E-06   -0.28494E-06  2568   0.784E-03
  76 F= -.33701801E+03 E0= -.33688702E+03  d E =0.126631E-03
       N       E                     dE             d eps       ncg     rms          rms(c)
DAV:   1    -0.337017850761E+03    0.15485E-03   -0.69380E-03  4000   0.828E-02    0.187E-02
DAV:   2    -0.337017863826E+03   -0.13065E-04   -0.13335E-04  4056   0.156E-02    0.207E-02
DAV:   3    -0.337017877092E+03   -0.13265E-04   -0.29656E-05  4432   0.221E-02    0.483E-02
DAV:   4    -0.337017865404E+03    0.11687E-04   -0.19224E-05  3800   0.199E-02    0.274E-02
DAV:   5    -0.337017861721E+03    0.36838E-05   -0.49702E-06  3104   0.115E-02    0.119E-02
DAV:   6    -0.337017862515E+03   -0.79424E-06   -0.40671E-06  2464   0.822E-03
  77 F= -.33701786E+03 E0= -.33688686E+03  d E =0.143717E-03
       N       E                     dE             d eps       ncg     rms          rms(c)
DAV:   1    -0.337017690653E+03    0.17107E-03   -0.73677E-03  4000   0.856E-02    0.215E-02
DAV:   2    -0.337017723421E+03   -0.32768E-04   -0.17025E-04  4120   0.289E-02    0.554E-02
DAV:   3    -0.337017704159E+03    0.19262E-04   -0.42964E-05  4376   0.268E-02    0.269E-02
DAV:   4    -0.337017715824E+03   -0.11664E-04   -0.23282E-05  3944   0.206E-02    0.473E-02
DAV:   5    -0.337017702958E+03    0.12866E-04   -0.17761E-05  3360   0.183E-02    0.194E-02
DAV:   6    -0.337017702222E+03    0.73533E-06   -0.51496E-06  2848   0.103E-02
  78 F= -.33701770E+03 E0= -.33688672E+03  d E =0.160293E-03
       N       E                     dE             d eps       ncg     rms          rms(c)
DAV:   1    -0.337017513965E+03    0.18899E-03   -0.78319E-03  4000   0.885E-02    0.219E-02
DAV:   2    -0.337017534131E+03   -0.20166E-04   -0.16280E-04  4096   0.230E-02    0.347E-02
DAV:   3    -0.337017535557E+03   -0.14259E-05   -0.32547E-05  4384   0.248E-02    0.412E-02
DAV:   4    -0.337017535413E+03    0.14358E-06   -0.26007E-05  3920   0.222E-02    0.401E-02
DAV:   5    -0.337017526642E+03    0.87709E-05   -0.13123E-05  3432   0.164E-02    0.172E-02
DAV:   6    -0.337017526792E+03   -0.14996E-06   -0.64616E-06  2896   0.102E-02
  79 F= -.33701753E+03 E0= -.33688654E+03  d E =0.175430E-03
       N       E                     dE             d eps       ncg     rms          rms(c)
DAV:   1    -0.337017322796E+03    0.20385E-03   -0.83258E-03  4000   0.915E-02    0.239E-02
DAV:   2    -0.337017365440E+03   -0.42644E-04   -0.20372E-04  4120   0.336E-02    0.652E-02
DAV:   3    -0.337017338177E+03    0.27263E-04   -0.57174E-05  4384   0.308E-02    0.297E-02
DAV:   4    -0.337017351457E+03   -0.13280E-04   -0.28048E-05  4192   0.224E-02    0.510E-02
DAV:   5    -0.337017336870E+03    0.14587E-04   -0.21506E-05  3760   0.201E-02    0.219E-02
DAV:   6    -0.337017335914E+03    0.95642E-06   -0.65531E-06  3000   0.115E-02
  80 F= -.33701734E+03 E0= -.33688635E+03  d E =0.190878E-03
       N       E                     dE             d eps       ncg     rms          rms(c)
DAV:   1    -0.337017115900E+03    0.22097E-03   -0.88300E-03  4000   0.943E-02    0.232E-02
DAV:   2    -0.337017140646E+03   -0.24746E-04   -0.18634E-04  4096   0.258E-02    0.396E-02
DAV:   3    -0.337017136633E+03    0.40130E-05   -0.34523E-05  4352   0.260E-02    0.373E-02
DAV:   4    -0.337017142589E+03   -0.59557E-05   -0.28060E-05  4008   0.229E-02    0.462E-02
DAV:   5    -0.337017130642E+03    0.11947E-04   -0.16831E-05  3544   0.184E-02    0.193E-02
DAV:   6    -0.337017130461E+03    0.18152E-06   -0.72869E-06  2976   0.109E-02
  81 F= -.33701713E+03 E0= -.33688614E+03  d E =0.205453E-03
       N       E                     dE             d eps       ncg     rms          rms(c)
DAV:   1    -0.337016895555E+03    0.23509E-03   -0.93749E-03  4000   0.973E-02    0.250E-02
DAV:   2    -0.337016943955E+03   -0.48400E-04   -0.22860E-04  4120   0.357E-02    0.692E-02
DAV:   3    -0.337016912885E+03    0.31071E-04   -0.63403E-05  4384   0.325E-02    0.310E-02
DAV:   4    -0.337016926971E+03   -0.14086E-04   -0.30279E-05  4232   0.234E-02    0.527E-02
DAV:   5    -0.337016911860E+03    0.15111E-04   -0.23441E-05  3872   0.209E-02    0.235E-02
DAV:   6    -0.337016910410E+03    0.14502E-05   -0.72204E-06  3072   0.121E-02    0.144E-02
DAV:   7    -0.337016910328E+03    0.81593E-07   -0.38405E-06  2848   0.910E-03
  82 F= -.33701691E+03 E0= -.33688589E+03  d E =0.220133E-03
       N       E                     dE             d eps       ncg     rms          rms(c)
DAV:   1    -0.337016659940E+03    0.25047E-03   -0.99328E-03  4000   0.994E-02    0.203E-02
DAV:   2    -0.337016675562E+03   -0.15622E-04   -0.18102E-04  4080   0.143E-02    0.144E-02
DAV:   3    -0.337016681480E+03   -0.59179E-05   -0.14260E-05  4424   0.161E-02    0.301E-02
DAV:   4    -0.337016683226E+03   -0.17462E-05   -0.14994E-05  3176   0.175E-02    0.341E-02
DAV:   5    -0.337016676124E+03    0.71018E-05   -0.10440E-05  2944   0.137E-02    0.122E-02
DAV:   6    -0.337016677192E+03   -0.10678E-05   -0.41835E-06  2536   0.854E-03    0.139E-02
DAV:   7    -0.337016676828E+03    0.36382E-06   -0.30108E-06  2400   0.735E-03
  83 F= -.33701668E+03 E0= -.33688567E+03  d E =0.233500E-03
       N       E                     dE             d eps       ncg     rms          rms(c)
DAV:   1    -0.337016411212E+03    0.26598E-03   -0.10560E-02  4000   0.102E-01    0.206E-02
DAV:   2    -0.337016432032E+03   -0.20820E-04   -0.19539E-04  4104   0.186E-02    0.283E-02
DAV:   3    -0.337016432468E+03   -0.43630E-06   -0.24625E-05  4488   0.200E-02    0.302E-02
DAV:   4    -0.337016436598E+03   -0.41293E-05   -0.16857E-05  3280   0.170E-02    0.363E-02
DAV:   5    -0.337016428881E+03    0.77168E-05   -0.10898E-05  2712   0.147E-02    0.166E-02
DAV:   6    -0.337016428903E+03   -0.21901E-07   -0.43614E-06  2600   0.922E-03
  84 F= -.33701643E+03 E0= -.33688544E+03  d E =0.247926E-03
       N       E                     dE             d eps       ncg     rms          rms(c)
DAV:   1    -0.337016148400E+03    0.28048E-03   -0.11140E-02  4000   0.106E-01    0.229E-02
DAV:   2    -0.337016174702E+03   -0.26302E-04   -0.22054E-04  4080   0.254E-02    0.357E-02
DAV:   3    -0.337016171278E+03    0.34231E-05   -0.33399E-05  4408   0.247E-02    0.335E-02
DAV:   4    -0.337016180117E+03   -0.88390E-05   -0.26899E-05  3880   0.222E-02    0.477E-02
DAV:   5    -0.337016167848E+03    0.12270E-04   -0.17816E-05  3480   0.189E-02    0.214E-02
DAV:   6    -0.337016166248E+03    0.15991E-05   -0.66890E-06  2776   0.109E-02    0.121E-02
DAV:   7    -0.337016167367E+03   -0.11185E-05   -0.42330E-06  2576   0.856E-03    0.141E-02
DAV:   8    -0.337016166375E+03    0.99226E-06   -0.23936E-06  2440   0.702E-03
  85 F= -.33701617E+03 E0= -.33688516E+03  d E =0.262528E-03
       N       E                     dE             d eps       ncg     rms          rms(c)
DAV:   1    -0.337015870598E+03    0.29677E-03   -0.11866E-02  4000   0.108E-01    0.209E-02
DAV:   2    -0.337015888805E+03   -0.18208E-04   -0.20857E-04  4080   0.145E-02    0.150E-02
DAV:   3    -0.337015896492E+03   -0.76863E-05   -0.17200E-05  4512   0.173E-02    0.334E-02
DAV:   4    -0.337015893249E+03    0.32430E-05   -0.15201E-05  3392   0.166E-02    0.267E-02
DAV:   5    -0.337015890527E+03    0.27212E-05   -0.79915E-06  2472   0.123E-02    0.173E-02
DAV:   6    -0.337015890691E+03   -0.16385E-06   -0.58591E-06  2512   0.965E-03
  86 F= -.33701589E+03 E0= -.33688488E+03  d E =0.275683E-03
       N       E                     dE             d eps       ncg     rms          rms(c)
DAV:   1    -0.337015579397E+03    0.31113E-03   -0.12504E-02  4000   0.112E-01    0.236E-02
DAV:   2    -0.337015610226E+03   -0.30828E-04   -0.24524E-04  4120   0.266E-02    0.403E-02
DAV:   3    -0.337015601975E+03    0.82512E-05   -0.33403E-05  4400   0.252E-02    0.279E-02
DAV:   4    -0.337015607703E+03   -0.57284E-05   -0.20623E-05  4168   0.182E-02    0.374E-02
DAV:   5    -0.337015604047E+03    0.36562E-05   -0.16852E-05  3096   0.178E-02    0.292E-02
DAV:   6    -0.337015599689E+03    0.43582E-05   -0.87743E-06  2768   0.126E-02    0.137E-02
DAV:   7    -0.337015600310E+03   -0.62111E-06   -0.39329E-06  2688   0.869E-03
  87 F= -.33701560E+03 E0= -.33688457E+03  d E =0.290381E-03
       N       E                     dE             d eps       ncg     rms          rms(c)
DAV:   1    -0.337015273849E+03    0.32584E-03   -0.13254E-02  4000   0.115E-01    0.232E-02
DAV:   2    -0.337015302062E+03   -0.28213E-04   -0.24828E-04  4064   0.235E-02    0.335E-02
DAV:   3    -0.337015304034E+03   -0.19717E-05   -0.29607E-05  4504   0.251E-02    0.405E-02
DAV:   4    -0.337015310065E+03   -0.60314E-05   -0.30971E-05  3952   0.242E-02    0.482E-02
DAV:   5    -0.337015295115E+03    0.14950E-04   -0.16278E-05  3472   0.179E-02    0.140E-02
DAV:   6    -0.337015296130E+03   -0.10146E-05   -0.53609E-06  2696   0.958E-03    0.149E-02
DAV:   7    -0.337015296642E+03   -0.51263E-06   -0.45959E-06  2520   0.862E-03
  88 F= -.33701530E+03 E0= -.33688429E+03  d E =0.303667E-03
       N       E                     dE             d eps       ncg     rms          rms(c)
DAV:   1    -0.337014954487E+03    0.34164E-03   -0.14049E-02  4000   0.118E-01    0.235E-02
DAV:   2    -0.337014982542E+03   -0.28055E-04   -0.26005E-04  4112   0.227E-02    0.322E-02
DAV:   3    -0.337014981856E+03    0.68572E-06   -0.30906E-05  4448   0.234E-02    0.322E-02
DAV:   4    -0.337014987272E+03   -0.54160E-05   -0.22393E-05  3936   0.191E-02    0.403E-02
DAV:   5    -0.337014979497E+03    0.77747E-05   -0.15048E-05  2936   0.173E-02    0.234E-02
DAV:   6    -0.337014977571E+03    0.19259E-05   -0.69862E-06  2640   0.112E-02    0.135E-02
DAV:   7    -0.337014978233E+03   -0.66197E-06   -0.37122E-06  2800   0.844E-03
  89 F= -.33701498E+03 E0= -.33688395E+03  d E =0.318409E-03
       N       E                     dE             d eps       ncg     rms          rms(c)
DAV:   1    -0.337014620793E+03    0.35678E-03   -0.14855E-02  4000   0.122E-01    0.240E-02
DAV:   2    -0.337014650278E+03   -0.29485E-04   -0.27240E-04  4064   0.231E-02    0.314E-02
DAV:   3    -0.337014649789E+03    0.48859E-06   -0.26657E-05  4528   0.238E-02    0.318E-02
DAV:   4    -0.337014667005E+03   -0.17216E-04   -0.30666E-05  4008   0.239E-02    0.583E-02
DAV:   5    -0.337014644364E+03    0.22641E-04   -0.20887E-05  3352   0.203E-02    0.144E-02
DAV:   6    -0.337014645813E+03   -0.14484E-05   -0.56071E-06  2672   0.989E-03    0.161E-02
DAV:   7    -0.337014646231E+03   -0.41806E-06   -0.48866E-06  2560   0.886E-03
  90 F= -.33701465E+03 E0= -.33688364E+03  d E =0.332003E-03
       N       E                     dE             d eps       ncg     rms          rms(c)
DAV:   1    -0.337014272538E+03    0.37327E-03   -0.15728E-02  4000   0.125E-01    0.243E-02
DAV:   2    -0.337014301915E+03   -0.29377E-04   -0.28612E-04  4104   0.217E-02    0.293E-02
DAV:   3    -0.337014307858E+03   -0.59436E-05   -0.34500E-05  4488   0.244E-02    0.416E-02
DAV:   4    -0.337014318618E+03   -0.10760E-04   -0.34666E-05  4016   0.253E-02    0.560E-02
DAV:   5    -0.337014298325E+03    0.20293E-04   -0.21038E-05  3440   0.205E-02    0.176E-02
DAV:   6    -0.337014298746E+03   -0.42099E-06   -0.63022E-06  2728   0.104E-02
  91 F= -.33701430E+03 E0= -.33688329E+03  d E =0.347484E-03
       N       E                     dE             d eps       ncg     rms          rms(c)
DAV:   1    -0.337013910973E+03    0.38735E-03   -0.16582E-02  4000   0.129E-01    0.277E-02
DAV:   2    -0.337013956755E+03   -0.45783E-04   -0.32745E-04  4096   0.334E-02    0.524E-02
DAV:   3    -0.337013943043E+03    0.13712E-04   -0.48546E-05  4440   0.311E-02    0.377E-02
DAV:   4    -0.337013960492E+03   -0.17449E-04   -0.39913E-05  4232   0.270E-02    0.604E-02
DAV:   5    -0.337013939305E+03    0.21187E-04   -0.28872E-05  4112   0.236E-02    0.252E-02
DAV:   6    -0.337013938221E+03    0.10834E-05   -0.99305E-06  3192   0.131E-02    0.177E-02
DAV:   7    -0.337013937862E+03    0.35956E-06   -0.56551E-06  3208   0.102E-02
  92 F= -.33701394E+03 E0= -.33688290E+03  d E =0.360884E-03
       N       E                     dE             d eps       ncg     rms          rms(c)
DAV:   1    -0.337013534601E+03    0.40362E-03   -0.17546E-02  4000   0.132E-01    0.264E-02
DAV:   2    -0.337013569792E+03   -0.35191E-04   -0.32712E-04  4064   0.267E-02    0.340E-02
DAV:   3    -0.337013570296E+03   -0.50390E-06   -0.40948E-05  4392   0.269E-02    0.373E-02
DAV:   4    -0.337013584047E+03   -0.13751E-04   -0.36986E-05  4216   0.261E-02    0.583E-02
DAV:   5    -0.337013563813E+03    0.20235E-04   -0.21421E-05  3752   0.213E-02    0.203E-02
DAV:   6    -0.337013563175E+03    0.63747E-06   -0.75318E-06  2984   0.112E-02
  93 F= -.33701356E+03 E0= -.33688254E+03  d E =0.374687E-03
       N       E                     dE             d eps       ncg     rms          rms(c)
DAV:   1    -0.337013143980E+03    0.41983E-03   -0.18529E-02  4000   0.137E-01    0.312E-02
DAV:   2    -0.337013226430E+03   -0.82450E-04   -0.41156E-04  4096   0.455E-02    0.859E-02
DAV:   3    -0.337013174100E+03    0.52330E-04   -0.95357E-05  4440   0.399E-02    0.308E-02
DAV:   4    -0.337013181691E+03   -0.75908E-05   -0.31836E-05  4264   0.215E-02    0.394E-02
DAV:   5    -0.337013184124E+03   -0.24335E-05   -0.24048E-05  3992   0.223E-02    0.432E-02
DAV:   6    -0.337013173463E+03    0.10661E-04   -0.17003E-05  3280   0.176E-02    0.178E-02
DAV:   7    -0.337013173877E+03   -0.41452E-06   -0.64421E-06  3440   0.110E-02
  94 F= -.33701317E+03 E0= -.33688216E+03  d E =0.389298E-03
       N       E                     dE             d eps       ncg     rms          rms(c)
DAV:   1    -0.337012737627E+03    0.43584E-03   -0.19574E-02  4000   0.140E-01    0.282E-02
DAV:   2    -0.337012781250E+03   -0.43623E-04   -0.36650E-04  4096   0.307E-02    0.421E-02
DAV:   3    -0.337012772863E+03    0.83865E-05   -0.39264E-05  4312   0.293E-02    0.311E-02
DAV:   4    -0.337012792123E+03   -0.19259E-04   -0.32176E-05  4192   0.246E-02    0.595E-02
DAV:   5    -0.337012769925E+03    0.22198E-04   -0.26473E-05  3568   0.225E-02    0.205E-02
DAV:   6    -0.337012769507E+03    0.41810E-06   -0.60846E-06  3184   0.118E-02
  95 F= -.33701277E+03 E0= -.33688173E+03  d E =0.404371E-03
       N       E                     dE             d eps       ncg     rms          rms(c)
DAV:   1    -0.337012317167E+03    0.45276E-03   -0.20649E-02  4000   0.144E-01    0.328E-02
DAV:   2    -0.337012416865E+03   -0.99699E-04   -0.48380E-04  4096   0.486E-02    0.100E-01
DAV:   3    -0.337012351751E+03    0.65114E-04   -0.13064E-04  4416   0.428E-02    0.321E-02
DAV:   4    -0.337012372904E+03   -0.21153E-04   -0.40622E-05  4288   0.265E-02    0.604E-02
DAV:   5    -0.337012354961E+03    0.17943E-04   -0.36531E-05  4168   0.260E-02    0.336E-02
DAV:   6    -0.337012349688E+03    0.52728E-05   -0.11929E-05  3800   0.159E-02    0.148E-02
DAV:   7    -0.337012350221E+03   -0.53266E-06   -0.58913E-06  3672   0.108E-02
  96 F= -.33701235E+03 E0= -.33688132E+03  d E =0.419286E-03
       N       E                     dE             d eps       ncg     rms          rms(c)
DAV:   1    -0.337011880803E+03    0.46889E-03   -0.21792E-02  4000   0.148E-01    0.279E-02
DAV:   2    -0.337011919119E+03   -0.38316E-04   -0.38564E-04  4096   0.230E-02    0.302E-02
DAV:   3    -0.337011928977E+03   -0.98576E-05   -0.47197E-05  4584   0.266E-02    0.485E-02
DAV:   4    -0.337011923219E+03    0.57578E-05   -0.31209E-05  4280   0.219E-02    0.355E-02
DAV:   5    -0.337011920014E+03    0.32051E-05   -0.16038E-05  3080   0.177E-02    0.288E-02
DAV:   6    -0.337011916186E+03    0.38281E-05   -0.10643E-05  3152   0.135E-02    0.135E-02
DAV:   7    -0.337011916709E+03   -0.52313E-06   -0.30091E-06  2520   0.753E-03
  97 F= -.33701192E+03 E0= -.33688087E+03  d E =0.433512E-03
       N       E                     dE             d eps       ncg     rms          rms(c)
DAV:   1    -0.337011429564E+03    0.48662E-03   -0.23013E-02  4000   0.151E-01    0.283E-02
DAV:   2    -0.337011469339E+03   -0.39775E-04   -0.40239E-04  4088   0.231E-02    0.282E-02
DAV:   3    -0.337011487996E+03   -0.18658E-04   -0.43333E-05  4560   0.291E-02    0.583E-02
DAV:   4    -0.337011489564E+03   -0.15676E-05   -0.49609E-05  4328   0.307E-02    0.587E-02
DAV:   5    -0.337011465927E+03    0.23637E-04   -0.25482E-05  4008   0.217E-02    0.154E-02
DAV:   6    -0.337011468636E+03   -0.27093E-05   -0.81066E-06  3296   0.117E-02    0.207E-02
DAV:   7    -0.337011467604E+03    0.10318E-05   -0.55647E-06  2752   0.962E-03    0.118E-02
DAV:   8    -0.337011466678E+03    0.92614E-06   -0.21265E-06  2424   0.670E-03
  98 F= -.33701147E+03 E0= -.33688042E+03  d E =0.450031E-03
       N       E                     dE             d eps       ncg     rms          rms(c)
DAV:   1    -0.337010964480E+03    0.50312E-03   -0.24259E-02  4000   0.155E-01    0.288E-02
DAV:   2    -0.337011004035E+03   -0.39555E-04   -0.41909E-04  4072   0.220E-02    0.238E-02
DAV:   3    -0.337011017130E+03   -0.13096E-04   -0.39691E-05  4536   0.260E-02    0.464E-02
DAV:   4    -0.337011019392E+03   -0.22617E-05   -0.36988E-05  4280   0.260E-02    0.515E-02
DAV:   5    -0.337011003426E+03    0.15966E-04   -0.20394E-05  3472   0.199E-02    0.194E-02
DAV:   6    -0.337011004597E+03   -0.11712E-05   -0.94656E-06  3272   0.122E-02    0.192E-02
DAV:   7    -0.337011004560E+03    0.36416E-07   -0.61110E-06  2888   0.104E-02
  99 F= -.33701100E+03 E0= -.33687998E+03  d E =0.462118E-03
       N       E                     dE             d eps       ncg     rms          rms(c)
DAV:   1    -0.337010484160E+03    0.52044E-03   -0.25485E-02  4000   0.160E-01    0.299E-02
DAV:   2    -0.337010528002E+03   -0.43842E-04   -0.44909E-04  4104   0.237E-02    0.286E-02
DAV:   3    -0.337010546276E+03   -0.18274E-04   -0.45566E-05  4576   0.292E-02    0.568E-02
DAV:   4    -0.337010552697E+03   -0.64208E-05   -0.52575E-05  4344   0.313E-02    0.644E-02
DAV:   5    -0.337010524492E+03    0.28205E-04   -0.26864E-05  4064   0.234E-02    0.167E-02
DAV:   6    -0.337010527855E+03   -0.33626E-05   -0.97908E-06  3568   0.124E-02    0.220E-02
DAV:   7    -0.337010527142E+03    0.71284E-06   -0.67344E-06  3008   0.110E-02
 100 F= -.33701053E+03 E0= -.33687947E+03  d E =0.477419E-03
       N       E                     dE             d eps       ncg     rms          rms(c)
DAV:   1    -0.337009990178E+03    0.53768E-03   -0.26797E-02  4000   0.164E-01    0.305E-02
DAV:   2    -0.337010033341E+03   -0.43162E-04   -0.47046E-04  4088   0.219E-02    0.219E-02
DAV:   3    -0.337010047637E+03   -0.14297E-04   -0.38725E-05  4536   0.248E-02    0.469E-02
DAV:   4    -0.337010035165E+03    0.12472E-04   -0.27476E-05  4376   0.212E-02    0.228E-02
DAV:   5    -0.337010037806E+03   -0.26412E-05   -0.13060E-05  3472   0.150E-02    0.283E-02
DAV:   6    -0.337010038624E+03   -0.81777E-06   -0.13006E-05  2824   0.157E-02    0.285E-02
DAV:   7    -0.337010035254E+03    0.33697E-05   -0.72476E-06  2808   0.123E-02    0.144E-02
DAV:   8    -0.337010033834E+03    0.14200E-05   -0.22848E-06  2472   0.757E-03    0.480E-03
DAV:   9    -0.337010033815E+03    0.19565E-07   -0.59035E-07  2216   0.334E-03
[...]
DAV:   4    -0.337057033268E+03   -0.11133E-05   -0.20610E-06  2240   0.601E-03    0.140E-02
DAV:   5    -0.337057032379E+03    0.88888E-06   -0.17664E-06  2264   0.585E-03
 680 F= -.33705703E+03 E0= -.33692621E+03  d E =-.336502E-04
       N       E                     dE             d eps       ncg     rms          rms(c)
DAV:   1    -0.337057065733E+03   -0.32464E-04   -0.38426E-04  4000   0.187E-02    0.787E-03
DAV:   2    -0.337057070201E+03   -0.44684E-05   -0.12102E-05  2968   0.104E-02    0.249E-02
DAV:   3    -0.337057067092E+03    0.31088E-05   -0.74111E-06  2648   0.111E-02    0.139E-02
DAV:   4    -0.337057066854E+03    0.23808E-06   -0.30448E-06  2280   0.762E-03    0.127E-02
DAV:   5    -0.337057066040E+03    0.81385E-06   -0.14167E-06  2256   0.478E-03
 681 F= -.33705707E+03 E0= -.33692626E+03  d E =-.336610E-04
       N       E                     dE             d eps       ncg     rms          rms(c)
DAV:   1    -0.337057099077E+03   -0.32223E-04   -0.39534E-04  4000   0.190E-02    0.891E-03
DAV:   2    -0.337057106105E+03   -0.70287E-05   -0.14162E-05  4160   0.142E-02    0.290E-02
DAV:   3    -0.337057099169E+03    0.69365E-05   -0.74980E-06  3520   0.130E-02    0.829E-03
DAV:   4    -0.337057101383E+03   -0.22138E-05   -0.33422E-06  2304   0.770E-03    0.185E-02
DAV:   5    -0.337057099495E+03    0.18876E-05   -0.25939E-06  2312   0.713E-03    0.878E-03
DAV:   6    -0.337057099191E+03    0.30435E-06   -0.10660E-06  2192   0.415E-03
 682 F= -.33705710E+03 E0= -.33692629E+03  d E =-.331504E-04
       N       E                     dE             d eps       ncg     rms          rms(c)
DAV:   1    -0.337057132311E+03   -0.32816E-04   -0.39992E-04  4000   0.185E-02    0.646E-03
DAV:   2    -0.337057133524E+03   -0.12125E-05   -0.80736E-06  2832   0.666E-03    0.106E-02
DAV:   3    -0.337057133796E+03   -0.27254E-06   -0.34742E-06  2424   0.802E-03    0.135E-02
DAV:   4    -0.337057133020E+03    0.77662E-06   -0.19305E-06  2248   0.625E-03    0.899E-03
DAV:   5    -0.337057132719E+03    0.30078E-06   -0.64810E-07  2192   0.379E-03
 683 F= -.33705713E+03 E0= -.33692632E+03  d E =-.335282E-04
       N       E                     dE             d eps       ncg     rms          rms(c)
DAV:   1    -0.337057165968E+03   -0.32948E-04   -0.41145E-04  4000   0.191E-02    0.818E-03
DAV:   2    -0.337057171264E+03   -0.52960E-05   -0.15049E-05  3264   0.116E-02    0.274E-02
DAV:   3    -0.337057166748E+03    0.45159E-05   -0.90654E-06  2864   0.115E-02    0.106E-02
DAV:   4    -0.337057167900E+03   -0.11523E-05   -0.29171E-06  2280   0.760E-03    0.167E-02
DAV:   5    -0.337057166251E+03    0.16492E-05   -0.22436E-06  2296   0.627E-03    0.508E-03
DAV:   6    -0.337057166288E+03   -0.36533E-07   -0.58139E-07  2160   0.380E-03
 684 F= -.33705717E+03 E0= -.33692635E+03  d E =-.335688E-04
       N       E                     dE             d eps       ncg     rms          rms(c)
DAV:   1    -0.337057199206E+03   -0.32955E-04   -0.41880E-04  4000   0.190E-02    0.658E-03
DAV:   2    -0.337057200927E+03   -0.17211E-05   -0.83474E-06  2952   0.735E-03    0.132E-02
DAV:   3    -0.337057199644E+03    0.12830E-05   -0.19714E-06  2536   0.745E-03    0.601E-03
DAV:   4    -0.337057200723E+03   -0.10789E-05   -0.13937E-06  2288   0.529E-03    0.134E-02
DAV:   5    -0.337057199553E+03    0.11704E-05   -0.13565E-06  2240   0.509E-03    0.425E-03
DAV:   6    -0.337057199675E+03   -0.12195E-06   -0.43076E-07  2112   0.301E-03
 685 F= -.33705720E+03 E0= -.33692638E+03  d E =-.333870E-04
       N       E                     dE             d eps       ncg     rms          rms(c)
DAV:   1    -0.337057232497E+03   -0.32944E-04   -0.42639E-04  4000   0.192E-02    0.732E-03
DAV:   2    -0.337057237177E+03   -0.46801E-05   -0.13438E-05  3160   0.109E-02    0.254E-02
DAV:   3    -0.337057232905E+03    0.42715E-05   -0.68834E-06  2744   0.103E-02    0.638E-03
DAV:   4    -0.337057234167E+03   -0.12616E-05   -0.19310E-06  2320   0.594E-03    0.145E-02
DAV:   5    -0.337057232989E+03    0.11780E-05   -0.17904E-06  2232   0.589E-03    0.648E-03
DAV:   6    -0.337057232819E+03    0.16983E-06   -0.50974E-07  2160   0.350E-03
 686 F= -.33705723E+03 E0= -.33692642E+03  d E =-.331446E-04
       N       E                     dE             d eps       ncg     rms          rms(c)
DAV:   1    -0.337057265637E+03   -0.32648E-04   -0.43441E-04  4000   0.193E-02    0.755E-03
DAV:   2    -0.337057269553E+03   -0.39157E-05   -0.11818E-05  3584   0.110E-02    0.212E-02
DAV:   3    -0.337057265891E+03    0.36615E-05   -0.47159E-06  2976   0.101E-02    0.622E-03
DAV:   4    -0.337057266461E+03   -0.56992E-06   -0.14944E-06  2296   0.488E-03    0.983E-03
DAV:   5    -0.337057266400E+03    0.61555E-07   -0.14474E-06  2248   0.520E-03
 687 F= -.33705727E+03 E0= -.33692646E+03  d E =-.335805E-04
       N       E                     dE             d eps       ncg     rms          rms(c)
DAV:   1    -0.337057298651E+03   -0.32190E-04   -0.44472E-04  4000   0.202E-02    0.924E-03
DAV:   2    -0.337057324513E+03   -0.25862E-04   -0.29902E-05  3984   0.215E-02    0.602E-02
DAV:   3    -0.337057299701E+03    0.24811E-04   -0.23181E-05  3416   0.210E-02    0.154E-02
DAV:   4    -0.337057299328E+03    0.37343E-06   -0.41144E-06  2336   0.791E-03    0.105E-02
DAV:   5    -0.337057298920E+03    0.40752E-06   -0.14228E-06  2344   0.428E-03
 688 F= -.33705730E+03 E0= -.33692649E+03  d E =-.325206E-04
       N       E                     dE             d eps       ncg     rms          rms(c)
DAV:   1    -0.337057331605E+03   -0.32277E-04   -0.45327E-04  4000   0.203E-02    0.973E-03
DAV:   2    -0.337057340244E+03   -0.86389E-05   -0.17198E-05  4288   0.157E-02    0.323E-02
DAV:   3    -0.337057332000E+03    0.82434E-05   -0.93559E-06  3832   0.145E-02    0.111E-02
DAV:   4    -0.337057333657E+03   -0.16566E-05   -0.38985E-06  2344   0.827E-03    0.177E-02
DAV:   5    -0.337057332090E+03    0.15667E-05   -0.27194E-06  2328   0.707E-03    0.942E-03
DAV:   6    -0.337057331714E+03    0.37678E-06   -0.12281E-06  2280   0.448E-03
 689 F= -.33705733E+03 E0= -.33692652E+03  d E =-.327933E-04
       N       E                     dE             d eps       ncg     rms          rms(c)
DAV:   1    -0.337057363785E+03   -0.31694E-04   -0.46286E-04  4000   0.199E-02    0.704E-03
DAV:   2    -0.337057365772E+03   -0.19871E-05   -0.98535E-06  2928   0.825E-03    0.143E-02
DAV:   3    -0.337057365396E+03    0.37601E-06   -0.41138E-06  2536   0.920E-03    0.144E-02
DAV:   4    -0.337057364658E+03    0.73765E-06   -0.24321E-06  2264   0.691E-03    0.986E-03
DAV:   5    -0.337057364228E+03    0.43020E-06   -0.98525E-07  2232   0.430E-03
 690 F= -.33705736E+03 E0= -.33692655E+03  d E =-.325143E-04
       N       E                     dE             d eps       ncg     rms          rms(c)
DAV:   1    -0.337057396113E+03   -0.31455E-04   -0.46386E-04  4000   0.201E-02    0.907E-03
DAV:   2    -0.337057402953E+03   -0.68398E-05   -0.18735E-05  3808   0.131E-02    0.312E-02
DAV:   3    -0.337057396695E+03    0.62576E-05   -0.11244E-05  3136   0.126E-02    0.932E-03
DAV:   4    -0.337057399304E+03   -0.26094E-05   -0.37791E-06  2352   0.857E-03    0.214E-02
DAV:   5    -0.337057396394E+03    0.29108E-05   -0.31472E-06  2344   0.767E-03    0.575E-03
DAV:   6    -0.337057396516E+03   -0.12267E-06   -0.79226E-07  2184   0.434E-03
 691 F= -.33705740E+03 E0= -.33692658E+03  d E =-.322883E-04
       N       E                     dE             d eps       ncg     rms          rms(c)
DAV:   1    -0.337057427465E+03   -0.31071E-04   -0.47962E-04  4000   0.204E-02    0.680E-03
DAV:   2    -0.337057428840E+03   -0.13753E-05   -0.91252E-06  2944   0.687E-03    0.114E-02
DAV:   3    -0.337057428226E+03    0.61458E-06   -0.23861E-06  2472   0.742E-03    0.835E-03
DAV:   4    -0.337057429477E+03   -0.12515E-05   -0.21683E-06  2272   0.666E-03    0.159E-02
DAV:   5    -0.337057427980E+03    0.14973E-05   -0.17610E-06  2296   0.594E-03    0.570E-03
DAV:   6    -0.337057427925E+03    0.55086E-07   -0.54985E-07  2168   0.329E-03
 692 F= -.33705743E+03 E0= -.33692661E+03  d E =-.314084E-04
       N       E                     dE             d eps       ncg     rms          rms(c)
DAV:   1    -0.337057457883E+03   -0.29903E-04   -0.44163E-04  4000   0.192E-02    0.883E-03
DAV:   2    -0.337057464703E+03   -0.68199E-05   -0.18523E-05  4136   0.136E-02    0.301E-02
DAV:   3    -0.337057458376E+03    0.63267E-05   -0.10151E-05  3352   0.125E-02    0.838E-03
DAV:   4    -0.337057459487E+03   -0.11103E-05   -0.27373E-06  2344   0.667E-03    0.144E-02
DAV:   5    -0.337057458725E+03    0.76203E-06   -0.24219E-06  2280   0.677E-03
 693 F= -.33705746E+03 E0= -.33692664E+03  d E =-.307999E-04
       N       E                     dE             d eps       ncg     rms          rms(c)
DAV:   1    -0.337057485721E+03   -0.26235E-04   -0.44320E-04  4000   0.204E-02    0.834E-03
DAV:   2    -0.337057493240E+03   -0.75191E-05   -0.13645E-05  3432   0.130E-02    0.312E-02
DAV:   3    -0.337057487967E+03    0.52738E-05   -0.90199E-06  2784   0.138E-02    0.180E-02
DAV:   4    -0.337057486368E+03    0.15987E-05   -0.36019E-06  2400   0.816E-03    0.908E-03
DAV:   5    -0.337057486423E+03   -0.54926E-07   -0.14058E-06  2248   0.450E-03
 694 F= -.33705749E+03 E0= -.33692668E+03  d E =-.276983E-04
       N       E                     dE             d eps       ncg     rms          rms(c)
DAV:   1    -0.337057509473E+03   -0.23105E-04   -0.31154E-04  3992   0.163E-02    0.870E-03
DAV:   2    -0.337057513407E+03   -0.39343E-05   -0.13383E-05  3208   0.101E-02    0.230E-02
DAV:   3    -0.337057511174E+03    0.22331E-05   -0.73893E-06  2816   0.113E-02    0.152E-02
DAV:   4    -0.337057511499E+03   -0.32526E-06   -0.41643E-06  2320   0.886E-03    0.166E-02
DAV:   5    -0.337057509801E+03    0.16987E-05   -0.22730E-06  2368   0.615E-03    0.539E-03
DAV:   6    -0.337057509989E+03   -0.18793E-06   -0.73093E-07  2272   0.419E-03
 695 F= -.33705751E+03 E0= -.33692670E+03  d E =-.235657E-04
       N       E                     dE             d eps       ncg     rms          rms(c)
DAV:   1    -0.337057528966E+03   -0.19165E-04   -0.24624E-04  3992   0.149E-02    0.517E-03
DAV:   2    -0.337057529631E+03   -0.66516E-06   -0.50045E-06  2688   0.503E-03    0.771E-03
DAV:   3    -0.337057529542E+03    0.88956E-07   -0.12411E-06  2336   0.553E-03    0.767E-03
DAV:   4    -0.337057529984E+03   -0.44225E-06   -0.13354E-06  2224   0.515E-03    0.108E-02
DAV:   5    -0.337057529332E+03    0.65179E-06   -0.10097E-06  2208   0.441E-03
 696 F= -.33705753E+03 E0= -.33692672E+03  d E =-.193437E-04
       N       E                     dE             d eps       ncg     rms          rms(c)
DAV:   1    -0.337057545514E+03   -0.15530E-04   -0.15106E-04  3992   0.114E-02    0.555E-03
DAV:   2    -0.337057547735E+03   -0.22206E-05   -0.66355E-06  2656   0.760E-03    0.175E-02
DAV:   3    -0.337057545782E+03    0.19531E-05   -0.35800E-06  2408   0.738E-03    0.551E-03
DAV:   4    -0.337057546684E+03   -0.90260E-06   -0.14254E-06  2280   0.502E-03    0.124E-02
DAV:   5    -0.337057545725E+03    0.95955E-06   -0.11521E-06  2176   0.472E-03
 697 F= -.33705755E+03 E0= -.33692673E+03  d E =-.163924E-04
       N       E                     dE             d eps       ncg     rms          rms(c)
DAV:   1    -0.337057561462E+03   -0.14778E-04   -0.14990E-04  3992   0.119E-02    0.522E-03
DAV:   2    -0.337057563258E+03   -0.17959E-05   -0.46018E-06  2616   0.756E-03    0.151E-02
DAV:   3    -0.337057562095E+03    0.11637E-05   -0.25347E-06  2400   0.760E-03    0.990E-03
DAV:   4    -0.337057561754E+03    0.34011E-06   -0.13129E-06  2224   0.488E-03    0.668E-03
DAV:   5    -0.337057561694E+03    0.60529E-07   -0.63566E-07  2192   0.326E-03
 698 F= -.33705756E+03 E0= -.33692675E+03  d E =-.159692E-04
       N       E                     dE             d eps       ncg     rms          rms(c)
DAV:   1    -0.337057577174E+03   -0.15420E-04   -0.14595E-04  3992   0.116E-02    0.510E-03
DAV:   2    -0.337057578532E+03   -0.13573E-05   -0.45707E-06  2592   0.605E-03    0.137E-02
DAV:   3    -0.337057577445E+03    0.10870E-05   -0.25718E-06  2392   0.627E-03    0.625E-03
DAV:   4    -0.337057578242E+03   -0.79750E-06   -0.13328E-06  2256   0.509E-03    0.122E-02
DAV:   5    -0.337057577302E+03    0.93984E-06   -0.10599E-06  2208   0.446E-03
 699 F= -.33705758E+03 E0= -.33692677E+03  d E =-.156084E-04
       N       E                     dE             d eps       ncg     rms          rms(c)
DAV:   1    -0.337057592938E+03   -0.14695E-04   -0.15281E-04  3992   0.119E-02    0.551E-03
DAV:   2    -0.337057595278E+03   -0.23405E-05   -0.52469E-06  2704   0.844E-03    0.171E-02
DAV:   3    -0.337057593393E+03    0.18855E-05   -0.29790E-06  2448   0.823E-03    0.898E-03
DAV:   4    -0.337057593323E+03    0.70031E-07   -0.12984E-06  2240   0.488E-03    0.788E-03
DAV:   5    -0.337057593148E+03    0.17467E-06   -0.79249E-07  2232   0.361E-03
 700 F= -.33705759E+03 E0= -.33692678E+03  d E =-.158457E-04
       N       E                     dE             d eps       ncg     rms          rms(c)
DAV:   1    -0.337057608539E+03   -0.15217E-04   -0.15651E-04  3992   0.120E-02    0.525E-03
DAV:   2    -0.337057610055E+03   -0.15155E-05   -0.47893E-06  2608   0.633E-03    0.144E-02
DAV:   3    -0.337057608810E+03    0.12448E-05   -0.26961E-06  2408   0.652E-03    0.632E-03
DAV:   4    -0.337057609688E+03   -0.87746E-06   -0.14447E-06  2264   0.525E-03    0.127E-02
DAV:   5    -0.337057608665E+03    0.10226E-05   -0.11077E-06  2208   0.456E-03    0.386E-03
DAV:   6    -0.337057608716E+03   -0.51383E-07   -0.25986E-07  2160   0.257E-03
 701 F= -.33705761E+03 E0= -.33692679E+03  d E =-.155683E-04
       N       E                     dE             d eps       ncg     rms          rms(c)
DAV:   1    -0.337057624116E+03   -0.15452E-04   -0.16139E-04  3992   0.118E-02    0.404E-03
DAV:   2    -0.337057624609E+03   -0.49258E-06   -0.31612E-06  2568   0.404E-03    0.670E-03
DAV:   3    -0.337057624367E+03    0.24223E-06   -0.86117E-07  2232   0.441E-03    0.484E-03
DAV:   4    -0.337057624868E+03   -0.50128E-06   -0.81817E-07  2184   0.398E-03    0.967E-03
DAV:   5    -0.337057624269E+03    0.59890E-06   -0.59307E-07  2168   0.352E-03
 702 F= -.33705762E+03 E0= -.33692681E+03  d E =-.155529E-04
       N       E                     dE             d eps       ncg     rms          rms(c)
DAV:   1    -0.337057639797E+03   -0.14929E-04   -0.16610E-04  3992   0.120E-02    0.533E-03
DAV:   2    -0.337057642278E+03   -0.24817E-05   -0.63013E-06  2624   0.803E-03    0.187E-02
DAV:   3    -0.337057640088E+03    0.21903E-05   -0.37016E-06  2400   0.775E-03    0.660E-03
DAV:   4    -0.337057640540E+03   -0.45185E-06   -0.12577E-06  2232   0.484E-03    0.103E-02
DAV:   5    -0.337057639961E+03    0.57903E-06   -0.87565E-07  2184   0.406E-03
 703 F= -.33705764E+03 E0= -.33692683E+03  d E =-.156919E-04
       N       E                     dE             d eps       ncg     rms          rms(c)
DAV:   1    -0.337057655424E+03   -0.14884E-04   -0.17195E-04  3992   0.125E-02    0.534E-03
DAV:   2    -0.337057656649E+03   -0.12248E-05   -0.43931E-06  2656   0.641E-03    0.122E-02
DAV:   3    -0.337057655705E+03    0.94436E-06   -0.19221E-06  2416   0.654E-03    0.658E-03
DAV:   4    -0.337057656416E+03   -0.71089E-06   -0.14012E-06  2232   0.512E-03    0.117E-02
DAV:   5    -0.337057655619E+03    0.79686E-06   -0.10631E-06  2240   0.450E-03
 704 F= -.33705766E+03 E0= -.33692684E+03  d E =-.156579E-04
       N       E                     dE             d eps       ncg     rms          rms(c)
DAV:   1    -0.337057671084E+03   -0.14668E-04   -0.17737E-04  3992   0.127E-02    0.580E-03
DAV:   2    -0.337057673879E+03   -0.27946E-05   -0.68999E-06  2680   0.843E-03    0.199E-02
DAV:   3    -0.337057671519E+03    0.23597E-05   -0.42254E-06  2448   0.837E-03    0.819E-03
DAV:   4    -0.337057671832E+03   -0.31302E-06   -0.15350E-06  2240   0.536E-03    0.105E-02
DAV:   5    -0.337057671256E+03    0.57581E-06   -0.92774E-07  2208   0.410E-03
 705 F= -.33705767E+03 E0= -.33692686E+03  d E =-.156374E-04
       N       E                     dE             d eps       ncg     rms          rms(c)
DAV:   1    -0.337057686808E+03   -0.14976E-04   -0.18232E-04  3992   0.129E-02    0.576E-03
DAV:   2    -0.337057688505E+03   -0.16964E-05   -0.51591E-06  2672   0.744E-03    0.144E-02
DAV:   3    -0.337057687069E+03    0.14360E-05   -0.23925E-06  2440   0.737E-03    0.677E-03
DAV:   4    -0.337057687894E+03   -0.82462E-06   -0.15753E-06  2256   0.541E-03    0.124E-02
DAV:   5    -0.337057687021E+03    0.87206E-06   -0.12094E-06  2264   0.479E-03
 706 F= -.33705769E+03 E0= -.33692687E+03  d E =-.157652E-04
       N       E                     dE             d eps       ncg     rms          rms(c)
DAV:   1    -0.337057702593E+03   -0.14700E-04   -0.18850E-04  3992   0.132E-02    0.600E-03
DAV:   2    -0.337057705560E+03   -0.29670E-05   -0.72872E-06  2680   0.865E-03    0.205E-02
DAV:   3    -0.337057703085E+03    0.24746E-05   -0.44928E-06  2464   0.865E-03    0.870E-03
DAV:   4    -0.337057703367E+03   -0.28116E-06   -0.16530E-06  2248   0.556E-03    0.107E-02
DAV:   5    -0.337057702769E+03    0.59750E-06   -0.96122E-07  2216   0.414E-03
 707 F= -.33705770E+03 E0= -.33692689E+03  d E =-.157477E-04
       N       E                     dE             d eps       ncg     rms          rms(c)
DAV:   1    -0.337057718547E+03   -0.15181E-04   -0.19273E-04  3992   0.133E-02    0.604E-03
DAV:   2    -0.337057720649E+03   -0.21019E-05   -0.57631E-06  2800   0.814E-03    0.160E-02
DAV:   3    -0.337057718786E+03    0.18633E-05   -0.27037E-06  2528   0.794E-03    0.688E-03
DAV:   4    -0.337057719708E+03   -0.92217E-06   -0.17103E-06  2264   0.560E-03    0.129E-02
DAV:   5    -0.337057718760E+03    0.94774E-06   -0.12982E-06  2288   0.495E-03
 708 F= -.33705772E+03 E0= -.33692690E+03  d E =-.159911E-04
       N       E                     dE             d eps       ncg     rms          rms(c)
DAV:   1    -0.337057734625E+03   -0.14917E-04   -0.19963E-04  3992   0.135E-02    0.621E-03
DAV:   2    -0.337057737963E+03   -0.33385E-05   -0.79767E-06  2728   0.911E-03    0.217E-02
DAV:   3    -0.337057735145E+03    0.28177E-05   -0.49727E-06  2520   0.909E-03    0.896E-03
DAV:   4    -0.337057735433E+03   -0.28805E-06   -0.17569E-06  2256   0.571E-03    0.109E-02
DAV:   5    -0.337057734798E+03    0.63520E-06   -0.98414E-07  2208   0.419E-03
 709 F= -.33705773E+03 E0= -.33692693E+03  d E =-.160381E-04
       N       E                     dE             d eps       ncg     rms          rms(c)
DAV:   1    -0.337057750988E+03   -0.15555E-04   -0.20322E-04  3992   0.136E-02    0.629E-03
DAV:   2    -0.337057753475E+03   -0.24864E-05   -0.62926E-06  2896   0.876E-03    0.174E-02
DAV:   3    -0.337057751201E+03    0.22741E-05   -0.29671E-06  2624   0.843E-03    0.689E-03
DAV:   4    -0.337057752242E+03   -0.10416E-05   -0.18245E-06  2280   0.577E-03    0.135E-02
DAV:   5    -0.337057751189E+03    0.10530E-05   -0.13747E-06  2288   0.511E-03    0.582E-03
DAV:   6    -0.337057751099E+03    0.90658E-07   -0.55665E-07  2152   0.302E-03
 710 F= -.33705775E+03 E0= -.33692694E+03  d E =-.163003E-04
       N       E                     dE             d eps       ncg     rms          rms(c)
DAV:   1    -0.337057767508E+03   -0.16319E-04   -0.20984E-04  3992   0.135E-02    0.531E-03
DAV:   2    -0.337057769449E+03   -0.19414E-05   -0.59327E-06  2760   0.807E-03    0.148E-02
DAV:   3    -0.337057767702E+03    0.17471E-05   -0.24645E-06  2440   0.752E-03    0.513E-03
DAV:   4    -0.337057768375E+03   -0.67303E-06   -0.11388E-06  2200   0.455E-03    0.109E-02
DAV:   5    -0.337057767762E+03    0.61340E-06   -0.99153E-07  2184   0.433E-03
 711 F= -.33705777E+03 E0= -.33692696E+03  d E =-.166632E-04
