  67  67   0   0
  0.3503968E+02  0.1114491E-08  0.1114491E-08  0.2182484E-08  0.2000000E-17
  1.000000000000000E-004
  CAR 
 Si-Diamond                              
      9.04338933    -23.26278001  301      0.72693246      1.00000000
    -23.263  0.0000E+00  0.0000E+00
    -23.155  0.0000E+00  0.0000E+00
    -23.047  0.0000E+00  0.0000E+00
    -22.940 -0.1524E-31 -0.1641E-32
    -22.832 -0.8906E-28 -0.9592E-29
    -22.724 -0.2901E-24 -0.3125E-25
    -22.617 -0.5263E-21 -0.5670E-22
    -22.509 -0.5311E-18 -0.5725E-19
    -22.401 -0.2892E-15 -0.3120E-16
    -22.294 -0.8920E-13 -0.9637E-14
    -22.186 -0.1520E-10 -0.1647E-11
    -22.078 -0.1423E-08 -0.1549E-09
    -21.971 -0.7249E-07 -0.7961E-08
    -21.863 -0.1980E-05 -0.2212E-06
    -21.755 -0.2816E-04 -0.3254E-05
    -21.647 -0.1938E-03 -0.2413E-04
    -21.540 -0.4891E-03 -0.7680E-04
    -21.432  0.6887E-03 -0.2632E-05
    -21.324  0.5593E-02  0.5997E-03
    -21.217  0.9646E-02  0.1638E-02
    -21.109  0.6460E-02  0.2334E-02
    -21.001  0.1171E-02  0.2460E-02
    -20.894 -0.4809E-03  0.2408E-02
    -20.786 -0.2393E-03  0.2383E-02
    -20.678 -0.3916E-04  0.2378E-02
    -20.571 -0.3043E-05  0.2378E-02
    -20.463 -0.1222E-06  0.2378E-02
    -20.355 -0.2624E-08  0.2378E-02
    -20.248 -0.3063E-10  0.2378E-02
    -20.140 -0.1961E-12  0.2378E-02
    -20.032 -0.6941E-15  0.2378E-02
    -19.924  0.0000E+00  0.2378E-02
    -19.817  0.0000E+00  0.2378E-02
    -19.709  0.0000E+00  0.2378E-02
    -19.601  0.0000E+00  0.2378E-02
    -19.494  0.0000E+00  0.2378E-02
    -19.386  0.0000E+00  0.2378E-02
    -19.278  0.0000E+00  0.2378E-02
    -19.171  0.0000E+00  0.2378E-02
    -19.063  0.0000E+00  0.2378E-02
    -18.955  0.0000E+00  0.2378E-02
    -18.848  0.0000E+00  0.2378E-02
    -18.740 -0.4071E-29  0.2378E-02
    -18.632 -0.1640E-25  0.2378E-02
    -18.525 -0.3681E-22  0.2378E-02
    -18.417 -0.4598E-19  0.2378E-02
    -18.309 -0.3071E-16  0.2378E-02
    -18.201 -0.1188E-13  0.2378E-02
    -18.094 -0.2516E-11  0.2378E-02
    -17.986 -0.2930E-09  0.2378E-02
    -17.878 -0.1864E-07  0.2378E-02
    -17.771 -0.6404E-06  0.2378E-02
    -17.663 -0.1161E-04  0.2377E-02
    -17.555 -0.1055E-03  0.2365E-02
    -17.448 -0.4109E-03  0.2321E-02
    -17.340 -0.1120E-03  0.2309E-02
    -17.232  0.3458E-02  0.2681E-02
    -17.125  0.8863E-02  0.3636E-02
    -17.017  0.8357E-02  0.4536E-02
    -16.909  0.2778E-02  0.4835E-02
    -16.802 -0.2727E-03  0.4806E-02
    -16.694 -0.3674E-03  0.4766E-02
    -16.586 -0.8308E-04  0.4757E-02
    -16.478 -0.8336E-05  0.4756E-02
    -16.371 -0.4233E-06  0.4756E-02
    -16.263 -0.1139E-07  0.4756E-02
    -16.155 -0.1656E-09  0.4756E-02
    -16.048 -0.1318E-11  0.4756E-02
    -15.940 -0.5772E-14  0.4756E-02
    -15.832 -0.1471E-16  0.4756E-02
    -15.725  0.0000E+00  0.4756E-02
    -15.617  0.0000E+00  0.4756E-02
    -15.509  0.0000E+00  0.4756E-02
    -15.402  0.0000E+00  0.4756E-02
    -15.294  0.0000E+00  0.4756E-02
    -15.186  0.0000E+00  0.4756E-02
    -15.079  0.0000E+00  0.4756E-02
    -14.971  0.0000E+00  0.4756E-02
    -14.863  0.0000E+00  0.4756E-02
    -14.755  0.0000E+00  0.4756E-02
    -14.648  0.0000E+00  0.4756E-02
    -14.540  0.0000E+00  0.4756E-02
    -14.432  0.0000E+00  0.4756E-02
    -14.325  0.0000E+00  0.4756E-02
    -14.217  0.0000E+00  0.4756E-02
    -14.109  0.0000E+00  0.4756E-02
    -14.002  0.0000E+00  0.4756E-02
    -13.894  0.0000E+00  0.4756E-02
    -13.786  0.0000E+00  0.4756E-02
    -13.679  0.0000E+00  0.4756E-02
    -13.571  0.0000E+00  0.4756E-02
    -13.463  0.0000E+00  0.4756E-02
    -13.356  0.0000E+00  0.4756E-02
    -13.248  0.0000E+00  0.4756E-02
    -13.140  0.0000E+00  0.4756E-02
    -13.032  0.0000E+00  0.4756E-02
    -12.925  0.0000E+00  0.4756E-02
    -12.817  0.0000E+00  0.4756E-02
    -12.709  0.0000E+00  0.4756E-02
    -12.602  0.0000E+00  0.4756E-02
    -12.494  0.0000E+00  0.4756E-02
    -12.386  0.0000E+00  0.4756E-02
    -12.279  0.0000E+00  0.4756E-02
    -12.171  0.0000E+00  0.4756E-02
    -12.063  0.0000E+00  0.4756E-02
    -11.956  0.0000E+00  0.4756E-02
    -11.848  0.0000E+00  0.4756E-02
    -11.740  0.0000E+00  0.4756E-02
    -11.633  0.0000E+00  0.4756E-02
    -11.525  0.0000E+00  0.4756E-02
    -11.417  0.0000E+00  0.4756E-02
    -11.309  0.0000E+00  0.4756E-02
    -11.202  0.0000E+00  0.4756E-02
    -11.094  0.0000E+00  0.4756E-02
    -10.986  0.0000E+00  0.4756E-02
    -10.879  0.0000E+00  0.4756E-02
    -10.771  0.0000E+00  0.4756E-02
    -10.663  0.0000E+00  0.4756E-02
    -10.556  0.0000E+00  0.4756E-02
    -10.448  0.0000E+00  0.4756E-02
    -10.340 -0.1499E-29  0.4756E-02
    -10.233 -0.6463E-26  0.4756E-02
    -10.125 -0.1552E-22  0.4756E-02
    -10.017 -0.2075E-19  0.4756E-02
     -9.910 -0.1543E-16  0.4756E-02
     -9.802 -0.6152E-14  0.4756E-02
     -9.694 -0.1395E-11  0.4756E-02
     -9.587 -0.1742E-09  0.4756E-02
     -9.479 -0.1189E-07  0.4756E-02
     -9.371 -0.4391E-06  0.4756E-02
     -9.263 -0.8585E-05  0.4755E-02
     -9.156 -0.8488E-04  0.4746E-02
     -9.048 -0.3714E-03  0.4706E-02
     -8.940 -0.2607E-03  0.4678E-02
     -8.833  0.2836E-02  0.4983E-02
     -8.725  0.8406E-02  0.5889E-02
     -8.617  0.8823E-02  0.6839E-02
     -8.510  0.3396E-02  0.7204E-02
     -8.402 -0.1283E-03  0.7191E-02
     -8.294 -0.4073E-03  0.7147E-02
     -8.187 -0.1033E-03  0.7136E-02
     -8.079 -0.1128E-04  0.7134E-02
     -7.971 -0.6178E-06  0.7134E-02
     -7.864 -0.1786E-07  0.7134E-02
     -7.756 -0.2789E-09  0.7134E-02
     -7.648 -0.2391E-11  0.7134E-02
     -7.540 -0.2648E-11  0.7134E-02
     -7.433 -0.3054E-09  0.7134E-02
     -7.325 -0.1932E-07  0.7134E-02
     -7.217 -0.6598E-06  0.7134E-02
     -7.110 -0.1188E-04  0.7133E-02
     -7.002 -0.1073E-03  0.7121E-02
     -6.894 -0.4139E-03  0.7077E-02
     -6.787 -0.9810E-04  0.7066E-02
     -6.679  0.3509E-02  0.7444E-02
     -6.571  0.8895E-02  0.8402E-02
     -6.464  0.8317E-02  0.9298E-02
     -6.356  0.2731E-02  0.9592E-02
     -6.248 -0.2823E-03  0.9561E-02
     -6.141 -0.3646E-03  0.9522E-02
     -6.033 -0.8737E-04  0.9513E-02
     -5.925 -0.4271E-04  0.9508E-02
     -5.817 -0.9324E-04  0.9498E-02
     -5.710 -0.7844E-04  0.9490E-02
     -5.602  0.1994E-03  0.9511E-02
     -5.494  0.1885E-02  0.9714E-02
     -5.387  0.7428E-02  0.1051E-01
     -5.279  0.1362E-01  0.1198E-01
     -5.171  0.1202E-01  0.1328E-01
     -5.064  0.6044E-02  0.1393E-01
     -4.956  0.5830E-02  0.1455E-01
     -4.848  0.1130E-01  0.1577E-01
     -4.741  0.1617E-01  0.1751E-01
     -4.633  0.1283E-01  0.1889E-01
     -4.525  0.4915E-02  0.1942E-01
     -4.418  0.6124E-02  0.2008E-01
     -4.310  0.1542E-01  0.2174E-01
     -4.202  0.1721E-01  0.2360E-01
     -4.094  0.1314E-01  0.2501E-01
     -3.987  0.2273E-01  0.2746E-01
     -3.879  0.5306E-01  0.3317E-01
     -3.771  0.8985E-01  0.4285E-01
     -3.664  0.1110E+00  0.5480E-01
     -3.556  0.1191E+00  0.6762E-01
     -3.448  0.1448E+00  0.8322E-01
     -3.341  0.1801E+00  0.1026E+00
     -3.233  0.1812E+00  0.1221E+00
     -3.125  0.1477E+00  0.1380E+00
     -3.018  0.1246E+00  0.1514E+00
     -2.910  0.1291E+00  0.1653E+00
     -2.802  0.1393E+00  0.1803E+00
     -2.695  0.1426E+00  0.1957E+00
     -2.587  0.1346E+00  0.2102E+00
     -2.479  0.1216E+00  0.2233E+00
     -2.371  0.1198E+00  0.2362E+00
     -2.264  0.1234E+00  0.2495E+00
     -2.156  0.1259E+00  0.2630E+00
     -2.048  0.1361E+00  0.2777E+00
     -1.941  0.1482E+00  0.2936E+00
     -1.833  0.1610E+00  0.3110E+00
     -1.725  0.1762E+00  0.3300E+00
     -1.618  0.1946E+00  0.3509E+00
     -1.510  0.2239E+00  0.3750E+00
     -1.402  0.2408E+00  0.4009E+00
     -1.295  0.2185E+00  0.4245E+00
     -1.187  0.1763E+00  0.4435E+00
     -1.079  0.1606E+00  0.4608E+00
     -0.972  0.1596E+00  0.4779E+00
     -0.864  0.1455E+00  0.4936E+00
     -0.756  0.1519E+00  0.5100E+00
     -0.648  0.1729E+00  0.5286E+00
     -0.541  0.1781E+00  0.5478E+00
     -0.433  0.1664E+00  0.5657E+00
     -0.325  0.1448E+00  0.5813E+00
     -0.218  0.1434E+00  0.5967E+00
     -0.110  0.1684E+00  0.6149E+00
     -0.002  0.1929E+00  0.6356E+00
      0.105  0.1976E+00  0.6569E+00
      0.213  0.1744E+00  0.6757E+00
      0.321  0.1471E+00  0.6915E+00
      0.428  0.1576E+00  0.7085E+00
      0.536  0.2157E+00  0.7317E+00
      0.644  0.2608E+00  0.7598E+00
      0.751  0.2361E+00  0.7852E+00
      0.859  0.1675E+00  0.8033E+00
      0.967  0.9515E-01  0.8135E+00
      1.075  0.3810E-01  0.8176E+00
      1.182  0.8921E-02  0.8186E+00
      1.290  0.3034E-02  0.8189E+00
      1.398  0.1034E-01  0.8200E+00
      1.505  0.2750E-01  0.8230E+00
      1.613  0.3970E-01  0.8273E+00
      1.721  0.3200E-01  0.8307E+00
      1.828  0.1689E-01  0.8325E+00
      1.936  0.1785E-01  0.8345E+00
      2.044  0.2768E-01  0.8374E+00
      2.151  0.2762E-01  0.8404E+00
      2.259  0.2431E-01  0.8430E+00
      2.367  0.2218E-01  0.8454E+00
      2.474  0.1637E-01  0.8472E+00
      2.582  0.1221E-01  0.8485E+00
      2.690  0.1133E-01  0.8497E+00
      2.798  0.1302E-01  0.8511E+00
      2.905  0.1858E-01  0.8531E+00
      3.013  0.2318E-01  0.8556E+00
      3.121  0.2613E-01  0.8584E+00
      3.228  0.2724E-01  0.8614E+00
      3.336  0.2707E-01  0.8643E+00
      3.444  0.2935E-01  0.8674E+00
      3.551  0.3180E-01  0.8709E+00
      3.659  0.3550E-01  0.8747E+00
      3.767  0.3779E-01  0.8788E+00
      3.874  0.3241E-01  0.8822E+00
      3.982  0.2276E-01  0.8847E+00
      4.090  0.1367E-01  0.8862E+00
      4.197  0.7240E-02  0.8869E+00
      4.305  0.9339E-02  0.8880E+00
      4.413  0.2309E-01  0.8904E+00
      4.521  0.3599E-01  0.8943E+00
      4.628  0.3141E-01  0.8977E+00
      4.736  0.1624E-01  0.8994E+00
      4.844  0.1285E-01  0.9008E+00
      4.951  0.2597E-01  0.9036E+00
      5.059  0.3576E-01  0.9075E+00
      5.167  0.2990E-01  0.9107E+00
      5.274  0.1779E-01  0.9126E+00
      5.382  0.1094E-01  0.9138E+00
      5.490  0.1969E-01  0.9159E+00
      5.597  0.4109E-01  0.9203E+00
      5.705  0.4845E-01  0.9256E+00
      5.813  0.3275E-01  0.9291E+00
      5.920  0.1766E-01  0.9310E+00
      6.028  0.1423E-01  0.9325E+00
      6.136  0.1468E-01  0.9341E+00
      6.244  0.1685E-01  0.9359E+00
      6.351  0.1821E-01  0.9379E+00
      6.459  0.1893E-01  0.9399E+00
      6.567  0.2447E-01  0.9425E+00
      6.674  0.3136E-01  0.9459E+00
      6.782  0.2894E-01  0.9490E+00
      6.890  0.1548E-01  0.9507E+00
      6.997  0.3936E-02  0.9511E+00
      7.105  0.8427E-03  0.9512E+00
      7.213  0.4281E-03  0.9513E+00
      7.320 -0.3365E-04  0.9513E+00
      7.428 -0.1117E-03  0.9513E+00
      7.536 -0.3514E-04  0.9512E+00
      7.643 -0.4662E-05  0.9512E+00
      7.751 -0.3080E-06  0.9512E+00
      7.859 -0.1072E-07  0.9512E+00
      7.967 -0.2018E-09  0.9512E+00
      8.074 -0.2081E-11  0.9512E+00
      8.182 -0.1184E-13  0.9512E+00
      8.290 -0.3759E-16  0.9512E+00
      8.397  0.0000E+00  0.9512E+00
      8.505  0.0000E+00  0.9512E+00
      8.613  0.0000E+00  0.9512E+00
      8.720  0.0000E+00  0.9512E+00
      8.828  0.0000E+00  0.9512E+00
      8.936  0.0000E+00  0.9512E+00
      9.043  0.0000E+00  0.9512E+00
