   67   67  841    1
  0.3503968E+02  0.1114491E-08  0.1114491E-08  0.2182484E-08  0.2000000E-17
  1.000000000000000E-004
  CAR 
 Si-Diamond                              
    656      5    400
 
  0.0000000E+00  0.0000000E+00  0.0000000E+00  0.1111111E+00
    1      -21.262628   1.000000
    2      -17.131390   1.000000
    3       -8.719480   1.000000
    4       -6.578610   1.000000
    5       -5.568738   1.000000
    6       -5.254766   1.000000
    7       -4.735294   1.000000
    8       -4.543773   1.000000
    9       -4.115160   1.000000
   10       -4.107844   1.000000
   11       -4.099493   1.000000
   12       -4.095908   1.000000
   13       -4.094981   1.000000
   14       -4.094245   1.000000
   15       -4.025785   1.000000
   16       -4.006347   1.000000
   17       -4.003735   1.000000
   18       -4.002200   1.000000
   19       -3.906451   1.000000
   20       -3.893029   1.000000
   21       -3.885408   1.000000
   22       -3.882335   1.000000
   23       -3.720440   1.000000
   24       -3.716652   1.000000
   25       -3.711478   1.000000
   26       -3.550964   1.000000
   27       -3.540712   1.000000
   28       -3.535098   1.000000
   29       -3.527408   1.000000
   30       -3.522122   1.000000
   31       -3.519418   1.000000
   32       -3.515759   1.000000
   33       -3.508544   1.000000
   34       -3.507850   1.000000
   35       -3.376427   1.000000
   36       -3.366803   1.000000
   37       -3.352910   1.000000
   38       -3.310831   1.000000
   39       -3.301062   1.000000
   40       -3.299595   1.000000
   41       -3.299084   1.000000
   42       -3.296441   1.000000
   43       -3.294160   1.000000
   44       -3.291937   1.000000
   45       -3.279956   1.000000
   46       -3.276774   1.000000
   47       -3.271246   1.000000
   48       -3.269515   1.000000
   49       -3.266629   1.000000
   50       -3.237566   1.000000
   51       -3.225202   1.000000
   52       -3.222456   1.000000
   53       -3.221872   1.000000
   54       -3.217789   1.000000
   55       -3.217379   1.000000
   56       -3.026492   1.000000
   57       -3.020877   1.000000
   58       -3.016513   1.000000
   59       -3.012682   1.000000
   60       -3.008142   1.000000
   61       -3.005628   1.000000
   62       -2.957883   1.000000
   63       -2.948148   1.000000
   64       -2.912360   1.000000
   65       -2.906565   1.000000
   66       -2.900227   1.000000
   67       -2.895777   1.000000
   68       -2.867258   1.000000
   69       -2.858366   1.000000
   70       -2.853571   1.000000
   71       -2.845147   1.000000
   72       -2.841816   1.000000
   73       -2.838502   1.000000
   74       -2.835772   1.000000
   75       -2.829848   1.000000
   76       -2.821927   1.000000
   77       -2.744563   1.000000
   78       -2.738742   1.000000
   79       -2.735429   1.000000
   80       -2.721919   1.000000
   81       -2.713815   1.000000
   82       -2.712117   1.000000
   83       -2.690628   1.000000
   84       -2.573302   1.000000
   85       -2.549057   1.000000
   86       -2.545338   1.000000
   87       -2.542346   1.000000
   88       -2.525362   1.000000
   89       -2.489826   1.000000
   90       -2.473241   1.000000
   91       -2.452998   1.000000
   92       -2.450403   1.000000
   93       -2.443255   1.000000
   94       -2.433849   1.000000
   95       -2.412090   1.000000
   96       -2.399122   1.000000
   97       -2.393409   1.000000
   98       -2.383893   1.000000
   99       -2.382901   1.000000
  100       -2.373441   1.000000
  101       -2.371035   1.000000
  102       -2.367265   1.000000
  103       -2.359194   1.000000
  104       -2.357159   1.000000
  105       -2.355193   1.000000
  106       -2.352186   1.000000
  107       -2.292721   1.000000
  108       -2.216918   1.000000
  109       -2.189243   1.000000
  110       -2.154763   1.000000
  111       -2.149284   1.000000
  112       -2.144103   1.000000
  113       -2.141601   1.000000
  114       -2.140414   1.000000
  115       -2.116221   1.000000
  116       -2.080666   1.000000
  117       -2.049028   1.000000
  118       -2.039038   1.000000
  119       -2.028570   1.000000
  120       -2.026347   1.000000
  121       -2.021461   1.000000
  122       -2.016032   1.000000
  123       -2.012733   1.000000
  124       -2.011516   1.000000
  125       -1.976102   1.000000
  126       -1.963516   1.000000
  127       -1.913124   1.000000
  128       -1.841037   1.000000
  129       -1.819763   1.000000
  130       -1.815696   1.000000
  131       -1.813287   1.000000
  132       -1.812276   1.000000
  133       -1.810199   1.000000
  134       -1.804142   1.000000
  135       -1.803191   1.000000
  136       -1.800064   1.000000
  137       -1.799372   1.000000
  138       -1.797765   1.000000
  139       -1.795997   1.000000
  140       -1.768083   1.000000
  141       -1.738477   1.000000
  142       -1.735196   1.000000
  143       -1.720574   1.000000
  144       -1.718049   1.000000
  145       -1.626454   1.000000
  146       -1.601284   1.000000
  147       -1.592852   1.000000
  148       -1.587906   1.000000
  149       -1.585068   1.000000
  150       -1.582863   1.000000
  151       -1.576013   1.000000
  152       -1.568365   1.000000
  153       -1.550982   1.000000
  154       -1.515524   1.000000
  155       -1.509498   1.000000
  156       -1.460863   1.000000
  157       -1.445139   1.000000
  158       -1.440747   1.000000
  159       -1.428594   1.000000
  160       -1.410001   1.000000
  161       -1.388443   1.000000
  162       -1.386067   1.000000
  163       -1.379474   1.000000
  164       -1.350776   1.000000
  165       -1.345788   1.000000
  166       -1.318067   1.000000
  167       -1.312921   1.000000
  168       -1.305934   1.000000
  169       -1.303861   1.000000
  170       -1.302361   1.000000
  171       -1.298605   1.000000
  172       -1.296705   1.000000
  173       -1.284102   1.000000
  174       -1.282176   1.000000
  175       -1.281281   1.000000
  176       -1.275616   1.000000
  177       -1.274343   1.000000
  178       -1.272941   1.000000
  179       -1.269523   1.000000
  180       -1.268417   1.000000
  181       -1.263881   1.000000
  182       -1.263565   1.000000
  183       -1.259818   1.000000
  184       -1.254701   1.000000
  185       -1.252658   1.000000
  186       -1.240133   1.000000
  187       -1.238401   1.000000
  188       -1.217959   1.000000
  189       -1.214067   1.000000
  190       -1.210256   1.000000
  191       -1.204811   1.000000
  192       -1.193394   1.000000
  193       -1.145748   1.000000
  194       -1.128716   1.000000
  195       -1.109307   1.000000
  196       -1.104559   1.000000
  197       -1.099802   1.000000
  198       -1.086459   1.000000
  199       -1.028764   1.000000
  200       -1.007183   1.000000
  201       -0.999931   1.000000
  202       -0.985478   1.000000
  203       -0.979184   1.000000
  204       -0.970002   1.000000
  205       -0.910442   1.000000
  206       -0.892297   1.000000
  207       -0.887879   1.000000
  208       -0.879862   1.000000
  209       -0.857930   1.000000
  210       -0.832869   1.000000
  211       -0.832368   1.000000
  212       -0.831335   1.000000
  213       -0.826086   1.000000
  214       -0.820089   1.000000
  215       -0.818175   1.000000
  216       -0.813835   1.000000
  217       -0.807302   1.000000
  218       -0.806426   1.000000
  219       -0.798641   1.000000
  220       -0.797451   1.000000
  221       -0.793531   1.000000
  222       -0.787548   1.000000
  223       -0.768640   1.000000
  224       -0.693623   1.000000
  225       -0.673105   1.000000
  226       -0.668123   1.000000
  227       -0.660379   1.000000
  228       -0.655363   1.000000
  229       -0.651742   1.000000
  230       -0.646216   1.000000
  231       -0.593065   1.000000
  232       -0.588540   1.000000
  233       -0.578399   1.000000
  234       -0.575560   1.000000
  235       -0.572271   1.000000
  236       -0.529987   1.000000
  237       -0.515128   1.000000
  238       -0.478278   1.000000
  239       -0.469926   1.000000
  240       -0.446666   1.000000
  241       -0.444873   1.000000
  242       -0.429181   1.000000
  243       -0.427548   1.000000
  244       -0.419366   1.000000
  245       -0.418982   1.000000
  246       -0.412405   1.000000
  247       -0.367787   1.000000
  248       -0.360196   1.000000
  249       -0.354472   1.000000
  250       -0.341209   1.000000
  251       -0.332580   1.000000
  252       -0.326471   1.000000
  253       -0.295597   1.000000
  254       -0.276692   1.000000
  255       -0.264212   1.000000
  256       -0.260175   1.000000
  257       -0.256648   1.000000
  258       -0.249181   1.000000
  259       -0.237897   1.000000
  260       -0.236074   1.000000
  261       -0.235494   1.000000
  262       -0.233430   1.000000
  263       -0.230626   1.000000
  264       -0.223433   1.000000
  265       -0.183923   1.000000
  266       -0.175941   1.000000
  267       -0.132362   1.000000
  268       -0.123754   1.000000
  269       -0.088862   1.000000
  270       -0.075822   1.000000
  271       -0.072430   1.000000
  272       -0.059124   1.000000
  273       -0.057305   1.000000
  274       -0.045947   1.000000
  275       -0.042745   1.000000
  276       -0.035290   1.000000
  277       -0.028855   1.000001
  278       -0.025027   1.000001
  279       -0.020537   1.000001
  280        0.018364   1.000003
  281        0.049348   1.000009
  282        0.054019   1.000011
  283        0.055187   1.000011
  284        0.057272   1.000012
  285        0.059736   1.000013
  286        0.099215   1.000042
  287        0.110086   1.000058
  288        0.150468   1.000178
  289        0.252636   1.002017
  290        0.262481   1.002469
  291        0.277010   1.003291
  292        0.312177   1.006253
  293        0.326784   1.007975
  294        0.335388   1.009143
  295        0.337535   1.009452
  296        0.346251   1.010785
  297        0.348691   1.011180
  298        0.375145   1.016058
  299        0.375867   1.016206
  300        0.446143   1.031627
  301        0.501419   1.033803
  302        0.504006   1.033298
  303        0.505800   1.032903
  304        0.539738   1.017143
  305        0.565842   0.991430
  306        0.586458   0.960700
  307        0.596545   0.941960
  308        0.600703   0.933502
  309        0.616957   0.896254
  310        0.656115   0.779843
  311        0.659346   0.768682
  312        0.688344   0.659958
  313        0.692731   0.642398
  314        0.700914   0.609066
  315        0.708400   0.578046
  316        0.708947   0.575763
  317        0.710829   0.567898
  318        0.712339   0.561570
  319        0.715528   0.548170
  320        0.736638   0.458984
  321        0.738924   0.449359
  322        0.739182   0.448273
  323        0.739992   0.444870
  324        0.776363   0.297758
  325        0.776728   0.296366
  326        0.778220   0.290695
  327        0.779763   0.284869
  328        0.826238   0.131816
  329        0.870753   0.033634
  330        0.876200   0.024982
  331        0.877402   0.023168
  332        0.878333   0.021785
  333        0.894517   0.000876
  334        0.899402  -0.004323
  335        0.901872  -0.006767
  336        0.913179  -0.016440
  337        0.935211  -0.028907
  338        0.988058  -0.034557
  339        1.012403  -0.030730
  340        1.027674  -0.027486
  341        1.034108  -0.026027
  342        1.054990  -0.021214
  343        1.056632  -0.020841
  344        1.057493  -0.020646
  345        1.399685  -0.000011
  346        1.599497  -0.000000
  347        1.604497  -0.000000
  348        1.606939  -0.000000
  349        1.676529  -0.000000
  350        1.768999  -0.000000
  351        2.060756  -0.000000
  352        2.656583  -0.000000
  353        2.678473  -0.000000
  354        2.700248  -0.000000
  355        2.778287  -0.000000
  356        3.163625  -0.000000
  357        3.187936  -0.000000
  358        3.191946  -0.000000
  359        3.195127  -0.000000
  360        3.197396  -0.000000
  361        3.210794  -0.000000
  362        3.509449  -0.000000
  363        3.732088  -0.000000
  364        3.736543  -0.000000
  365        3.740175  -0.000000
  366        3.761785  -0.000000
  367        3.765645  -0.000000
  368        3.779680  -0.000000
  369        3.782668  -0.000000
  370        3.791378  -0.000000
  371        3.827282  -0.000000
  372        3.857428  -0.000000
  373        3.881507  -0.000000
  374        3.887052  -0.000000
  375        4.013855  -0.000000
  376        4.209799  -0.000000
  377        4.309914  -0.000000
  378        4.441103  -0.000000
  379        4.451719  -0.000000
  380        4.474568  -0.000000
  381        4.517741  -0.000000
  382        4.565890  -0.000000
  383        4.649924  -0.000000
  384        5.016513  -0.000000
  385        5.062739  -0.000000
  386        5.108945  -0.000000
  387        5.155519  -0.000000
  388        5.183055  -0.000000
  389        5.243564  -0.000000
  390        5.605773  -0.000000
  391        5.617403  -0.000000
  392        5.635619  -0.000000
  393        5.702061  -0.000000
  394        5.786947  -0.000000
  395        5.985854  -0.000000
  396        6.194046   0.000000
  397        6.255596   0.000000
  398        6.288636   0.000000
  399        7.011051   0.000000
  400        7.043389   0.000000
 
  0.3333333E+00 -0.3736539E-16  0.0000000E+00  0.2222222E+00
    1      -21.262710   1.000000
    2      -17.131390   1.000000
    3       -8.719343   1.000000
    4       -6.579434   1.000000
    5       -5.357480   1.000000
    6       -5.254988   1.000000
    7       -4.792200   1.000000
    8       -4.722376   1.000000
    9       -4.340771   1.000000
   10       -4.293387   1.000000
   11       -4.288167   1.000000
   12       -3.919664   1.000000
   13       -3.868055   1.000000
   14       -3.860855   1.000000
   15       -3.857353   1.000000
   16       -3.840486   1.000000
   17       -3.833953   1.000000
   18       -3.803001   1.000000
   19       -3.768162   1.000000
   20       -3.752282   1.000000
   21       -3.743294   1.000000
   22       -3.742801   1.000000
   23       -3.716867   1.000000
   24       -3.690069   1.000000
   25       -3.628095   1.000000
   26       -3.623793   1.000000
   27       -3.618698   1.000000
   28       -3.533010   1.000000
   29       -3.528494   1.000000
   30       -3.489005   1.000000
   31       -3.479592   1.000000
   32       -3.471070   1.000000
   33       -3.456344   1.000000
   34       -3.440481   1.000000
   35       -3.433959   1.000000
   36       -3.416505   1.000000
   37       -3.413614   1.000000
   38       -3.397379   1.000000
   39       -3.380024   1.000000
   40       -3.377295   1.000000
   41       -3.374937   1.000000
   42       -3.365781   1.000000
   43       -3.327537   1.000000
   44       -3.317627   1.000000
   45       -3.314713   1.000000
   46       -3.313795   1.000000
   47       -3.307920   1.000000
   48       -3.305987   1.000000
   49       -3.286357   1.000000
   50       -3.258692   1.000000
   51       -3.246629   1.000000
   52       -3.241665   1.000000
   53       -3.236623   1.000000
   54       -3.201989   1.000000
   55       -3.199484   1.000000
   56       -3.188354   1.000000
   57       -3.184789   1.000000
   58       -3.138500   1.000000
   59       -3.135927   1.000000
   60       -3.132107   1.000000
   61       -3.124467   1.000000
   62       -3.069739   1.000000
   63       -3.023666   1.000000
   64       -3.012417   1.000000
   65       -2.991862   1.000000
   66       -2.988473   1.000000
   67       -2.954394   1.000000
   68       -2.952513   1.000000
   69       -2.938955   1.000000
   70       -2.921535   1.000000
   71       -2.908293   1.000000
   72       -2.903387   1.000000
   73       -2.852188   1.000000
   74       -2.815562   1.000000
   75       -2.809100   1.000000
   76       -2.790995   1.000000
   77       -2.783472   1.000000
   78       -2.762997   1.000000
   79       -2.755667   1.000000
   80       -2.752116   1.000000
   81       -2.748792   1.000000
   82       -2.699425   1.000000
   83       -2.674973   1.000000
   84       -2.637953   1.000000
   85       -2.627283   1.000000
   86       -2.612833   1.000000
   87       -2.605617   1.000000
   88       -2.597891   1.000000
   89       -2.590209   1.000000
   90       -2.583322   1.000000
   91       -2.565586   1.000000
   92       -2.560236   1.000000
   93       -2.525848   1.000000
   94       -2.508342   1.000000
   95       -2.472775   1.000000
   96       -2.432274   1.000000
   97       -2.403583   1.000000
   98       -2.395166   1.000000
   99       -2.378071   1.000000
  100       -2.369527   1.000000
  101       -2.364383   1.000000
  102       -2.349622   1.000000
  103       -2.341937   1.000000
  104       -2.301341   1.000000
  105       -2.293103   1.000000
  106       -2.276193   1.000000
  107       -2.256200   1.000000
  108       -2.238070   1.000000
  109       -2.210021   1.000000
  110       -2.170671   1.000000
  111       -2.144577   1.000000
  112       -2.126332   1.000000
  113       -2.109442   1.000000
  114       -2.082569   1.000000
  115       -2.053827   1.000000
  116       -2.043139   1.000000
  117       -2.023386   1.000000
  118       -2.012888   1.000000
  119       -2.000520   1.000000
  120       -1.991671   1.000000
  121       -1.987281   1.000000
  122       -1.979468   1.000000
  123       -1.952644   1.000000
  124       -1.935523   1.000000
  125       -1.927538   1.000000
  126       -1.915572   1.000000
  127       -1.914116   1.000000
  128       -1.905315   1.000000
  129       -1.879102   1.000000
  130       -1.845282   1.000000
  131       -1.830183   1.000000
  132       -1.828130   1.000000
  133       -1.812931   1.000000
  134       -1.796864   1.000000
  135       -1.785968   1.000000
  136       -1.770645   1.000000
  137       -1.755120   1.000000
  138       -1.738254   1.000000
  139       -1.730580   1.000000
  140       -1.719030   1.000000
  141       -1.698333   1.000000
  142       -1.693692   1.000000
  143       -1.682482   1.000000
  144       -1.671450   1.000000
  145       -1.667381   1.000000
  146       -1.623901   1.000000
  147       -1.619948   1.000000
  148       -1.605562   1.000000
  149       -1.600260   1.000000
  150       -1.579716   1.000000
  151       -1.566639   1.000000
  152       -1.564217   1.000000
  153       -1.562795   1.000000
  154       -1.550216   1.000000
  155       -1.539628   1.000000
  156       -1.533693   1.000000
  157       -1.524137   1.000000
  158       -1.519033   1.000000
  159       -1.510973   1.000000
  160       -1.499030   1.000000
  161       -1.493780   1.000000
  162       -1.480370   1.000000
  163       -1.478188   1.000000
  164       -1.464907   1.000000
  165       -1.460006   1.000000
  166       -1.439640   1.000000
  167       -1.419995   1.000000
  168       -1.417246   1.000000
  169       -1.413393   1.000000
  170       -1.393106   1.000000
  171       -1.390230   1.000000
  172       -1.380524   1.000000
  173       -1.378205   1.000000
  174       -1.364380   1.000000
  175       -1.342832   1.000000
  176       -1.335418   1.000000
  177       -1.316684   1.000000
  178       -1.299931   1.000000
  179       -1.298201   1.000000
  180       -1.287951   1.000000
  181       -1.270680   1.000000
  182       -1.258141   1.000000
  183       -1.242993   1.000000
  184       -1.233060   1.000000
  185       -1.215007   1.000000
  186       -1.186332   1.000000
  187       -1.128304   1.000000
  188       -1.114697   1.000000
  189       -1.100054   1.000000
  190       -1.089883   1.000000
  191       -1.081801   1.000000
  192       -1.069038   1.000000
  193       -1.067220   1.000000
  194       -1.062648   1.000000
  195       -1.046595   1.000000
  196       -1.040376   1.000000
  197       -1.018350   1.000000
  198       -1.009405   1.000000
  199       -1.007085   1.000000
  200       -1.000503   1.000000
  201       -0.997388   1.000000
  202       -0.986225   1.000000
  203       -0.979306   1.000000
  204       -0.967605   1.000000
  205       -0.955496   1.000000
  206       -0.947000   1.000000
  207       -0.900874   1.000000
  208       -0.853044   1.000000
  209       -0.835373   1.000000
  210       -0.823631   1.000000
  211       -0.788419   1.000000
  212       -0.779977   1.000000
  213       -0.774151   1.000000
  214       -0.770974   1.000000
  215       -0.755332   1.000000
  216       -0.753747   1.000000
  217       -0.742929   1.000000
  218       -0.738845   1.000000
  219       -0.725483   1.000000
  220       -0.718940   1.000000
  221       -0.711387   1.000000
  222       -0.701347   1.000000
  223       -0.690673   1.000000
  224       -0.675154   1.000000
  225       -0.665059   1.000000
  226       -0.659845   1.000000
  227       -0.606351   1.000000
  228       -0.574318   1.000000
  229       -0.567421   1.000000
  230       -0.548805   1.000000
  231       -0.532435   1.000000
  232       -0.517818   1.000000
  233       -0.514341   1.000000
  234       -0.509523   1.000000
  235       -0.505139   1.000000
  236       -0.494018   1.000000
  237       -0.487461   1.000000
  238       -0.445605   1.000000
  239       -0.442120   1.000000
  240       -0.434412   1.000000
  241       -0.429825   1.000000
  242       -0.381926   1.000000
  243       -0.375852   1.000000
  244       -0.320035   1.000000
  245       -0.302965   1.000000
  246       -0.283977   1.000000
  247       -0.267105   1.000000
  248       -0.246366   1.000000
  249       -0.228281   1.000000
  250       -0.218714   1.000000
  251       -0.192011   1.000000
  252       -0.181127   1.000000
  253       -0.174480   1.000000
  254       -0.164036   1.000000
  255       -0.155763   1.000000
  256       -0.151157   1.000000
  257       -0.134725   1.000000
  258       -0.109854   1.000000
  259       -0.097969   1.000000
  260       -0.072248   1.000000
  261       -0.060999   1.000000
  262       -0.058424   1.000000
  263       -0.050050   1.000000
  264       -0.038133   1.000000
  265       -0.013171   1.000001
  266       -0.006493   1.000001
  267       -0.000001   1.000002
  268        0.004835   1.000002
  269        0.028442   1.000005
  270        0.040695   1.000007
  271        0.050311   1.000009
  272        0.056199   1.000011
  273        0.072904   1.000019
  274        0.074818   1.000020
  275        0.089138   1.000031
  276        0.092301   1.000034
  277        0.102277   1.000046
  278        0.107018   1.000053
  279        0.120416   1.000078
  280        0.130138   1.000102
  281        0.136924   1.000123
  282        0.147275   1.000163
  283        0.152220   1.000186
  284        0.185570   1.000438
  285        0.241812   1.001604
  286        0.264837   1.002589
  287        0.276797   1.003278
  288        0.288284   1.004077
  289        0.293777   1.004513
  290        0.299772   1.005031
  291        0.319198   1.007041
  292        0.335231   1.009120
  293        0.353551   1.011995
  294        0.359119   1.012975
  295        0.373078   1.015640
  296        0.398575   1.021146
  297        0.428842   1.028075
  298        0.471517   1.035065
  299        0.476322   1.035339
  300        0.477083   1.035368
  301        0.483212   1.035452
  302        0.488099   1.035308
  303        0.497916   1.034370
  304        0.500154   1.034023
  305        0.502744   1.033554
  306        0.504911   1.033103
  307        0.525887   1.025661
  308        0.534683   1.020624
  309        0.553773   1.005018
  310        0.569617   0.986533
  311        0.577234   0.975671
  312        0.583866   0.965112
  313        0.589166   0.955915
  314        0.597240   0.940578
  315        0.601294   0.932265
  316        0.604322   0.925785
  317        0.612108   0.908064
  318        0.615359   0.900211
  319        0.624042   0.877932
  320        0.628651   0.865343
  321        0.643427   0.821502
  322        0.647108   0.809786
  323        0.649856   0.800838
  324        0.663629   0.753565
  325        0.687621   0.662831
  326        0.690666   0.650695
  327        0.698173   0.620306
  328        0.725638   0.505478
  329        0.738575   0.450828
  330        0.743294   0.431023
  331        0.746155   0.419076
  332        0.751616   0.396431
  333        0.756028   0.378318
  334        0.770176   0.321677
  335        0.774367   0.305413
  336        0.789113   0.250459
  337        0.826702   0.130536
  338        0.835338   0.107697
  339        0.889326   0.006953
  340        0.893839   0.001638
  341        0.912040  -0.015575
  342        0.913341  -0.016562
  343        0.925912  -0.024589
  344        0.964849  -0.035258
  345        1.191777  -0.002449
  346        1.454676  -0.000002
  347        1.558575  -0.000000
  348        1.628779  -0.000000
  349        1.669317  -0.000000
  350        1.678859  -0.000000
  351        1.999324  -0.000000
  352        2.034975  -0.000000
  353        2.106763  -0.000000
  354        2.235314  -0.000000
  355        2.310688  -0.000000
  356        2.381304  -0.000000
  357        2.599056  -0.000000
  358        2.826022  -0.000000
  359        2.905827  -0.000000
  360        2.956165  -0.000000
  361        3.082840  -0.000000
  362        3.116285  -0.000000
  363        3.161555  -0.000000
  364        3.341269  -0.000000
  365        3.416547  -0.000000
  366        3.438140  -0.000000
  367        3.548446  -0.000000
  368        3.594764  -0.000000
  369        3.645063  -0.000000
  370        3.700495  -0.000000
  371        3.720059  -0.000000
  372        3.913957  -0.000000
  373        4.052797  -0.000000
  374        4.312735  -0.000000
  375        4.483375  -0.000000
  376        4.527616  -0.000000
  377        4.584615  -0.000000
  378        4.671339  -0.000000
  379        4.862629  -0.000000
  380        4.979630  -0.000000
  381        4.982312  -0.000000
  382        5.013275  -0.000000
  383        5.041239  -0.000000
  384        5.208152  -0.000000
  385        5.416288  -0.000000
  386        5.548824  -0.000000
  387        5.573548  -0.000000
  388        5.600868  -0.000000
  389        5.646358  -0.000000
  390        5.710715  -0.000000
  391        5.718681  -0.000000
  392        5.957051  -0.000000
  393        6.181876  -0.000000
  394        6.303580   0.000000
  395        6.414523   0.000000
  396        6.555931   0.000000
  397        6.622577   0.000000
  398        6.736010   0.000000
  399        6.738728   0.000000
  400        6.787871   0.000000
 
  0.0000000E+00  0.3333333E+00  0.0000000E+00  0.2222222E+00
    1      -21.262668   1.000000
    2      -17.131430   1.000000
    3       -8.719388   1.000000
    4       -6.578732   1.000000
    5       -5.360273   1.000000
    6       -5.253583   1.000000
    7       -4.784888   1.000000
    8       -4.729912   1.000000
    9       -4.342421   1.000000
   10       -4.290443   1.000000
   11       -4.286283   1.000000
   12       -3.920004   1.000000
   13       -3.865936   1.000000
   14       -3.862950   1.000000
   15       -3.858834   1.000000
   16       -3.850788   1.000000
   17       -3.832732   1.000000
   18       -3.807190   1.000000
   19       -3.757185   1.000000
   20       -3.750987   1.000000
   21       -3.744189   1.000000
   22       -3.742909   1.000000
   23       -3.720121   1.000000
   24       -3.687686   1.000000
   25       -3.627631   1.000000
   26       -3.623654   1.000000
   27       -3.618378   1.000000
   28       -3.532533   1.000000
   29       -3.527502   1.000000
   30       -3.482683   1.000000
   31       -3.476202   1.000000
   32       -3.469940   1.000000
   33       -3.448799   1.000000
   34       -3.439157   1.000000
   35       -3.436208   1.000000
   36       -3.417424   1.000000
   37       -3.412302   1.000000
   38       -3.398214   1.000000
   39       -3.385631   1.000000
   40       -3.377157   1.000000
   41       -3.373799   1.000000
   42       -3.370098   1.000000
   43       -3.325246   1.000000
   44       -3.319144   1.000000
   45       -3.316258   1.000000
   46       -3.313948   1.000000
   47       -3.311031   1.000000
   48       -3.306116   1.000000
   49       -3.289586   1.000000
   50       -3.257764   1.000000
   51       -3.242747   1.000000
   52       -3.238708   1.000000
   53       -3.235154   1.000000
   54       -3.208506   1.000000
   55       -3.200978   1.000000
   56       -3.190841   1.000000
   57       -3.178905   1.000000
   58       -3.140568   1.000000
   59       -3.137951   1.000000
   60       -3.129933   1.000000
   61       -3.126256   1.000000
   62       -3.067032   1.000000
   63       -3.020943   1.000000
   64       -3.015521   1.000000
   65       -2.996081   1.000000
   66       -2.989492   1.000000
   67       -2.955313   1.000000
   68       -2.953478   1.000000
   69       -2.931075   1.000000
   70       -2.921386   1.000000
   71       -2.916932   1.000000
   72       -2.909869   1.000000
   73       -2.843434   1.000000
   74       -2.820446   1.000000
   75       -2.806724   1.000000
   76       -2.792341   1.000000
   77       -2.787975   1.000000
   78       -2.767557   1.000000
   79       -2.754796   1.000000
   80       -2.751699   1.000000
   81       -2.745107   1.000000
   82       -2.702843   1.000000
   83       -2.671260   1.000000
   84       -2.656690   1.000000
   85       -2.624093   1.000000
   86       -2.618623   1.000000
   87       -2.609720   1.000000
   88       -2.599743   1.000000
   89       -2.589063   1.000000
   90       -2.583225   1.000000
   91       -2.565863   1.000000
   92       -2.560501   1.000000
   93       -2.528392   1.000000
   94       -2.514768   1.000000
   95       -2.464057   1.000000
   96       -2.426529   1.000000
   97       -2.401234   1.000000