 vasp.5.4.4.18Apr17-6-g9f103f2a35 (build Aug 16 2021 22:57:11) complex          
  
 executed on             LinuxIFC date 2021.12.19  07:59:12
 running on  128 total cores
 distrk:  each k-point on  128 cores,    1 groups
 distr:  one band on NCORES_PER_BAND=  16 cores,    8 groups


--------------------------------------------------------------------------------------------------------


 INCAR:
 POTCAR:    PAW_PBE Pd 04Jan2005                  
 POTCAR:    PAW_PBE N 08Apr2002                   
 POTCAR:    PAW_PBE O 08Apr2002                   
 POTCAR:    PAW_PBE Pd 04Jan2005                  
   VRHFIN =Pd : s1 d9                                                           
   LEXCH  = PE                                                                  
   EATOM  =   809.7530 eV,   59.5152 Ry                                         
                                                                                
   TITEL  = PAW_PBE Pd 04Jan2005                                                
   LULTRA =        F    use ultrasoft PP ?                                      
   IUNSCR =        1    unscreen: 0-lin 1-nonlin 2-no                           
   RPACOR =    2.000    partial core radius                                     
   POMASS =  106.420; ZVAL   =   10.000    mass and valenz                      
   RCORE  =    2.600    outmost cutoff radius                                   
   RWIGS  =    2.710; RWIGS  =    1.434    wigner-seitz radius (au A)           
   ENMAX  =  250.925; ENMIN  =  188.194 eV                                      
   ICORE  =        3    local potential                                         
   LCOR   =        T    correct aug charges                                     
   LPAW   =        T    paw PP                                                  
   EAUG   =  416.230                                                            
   DEXC   =    0.000                                                            
   RMAX   =    2.653    core radius for proj-oper                               
   RAUG   =    1.300    factor for augmentation sphere                          
   RDEP   =    2.734    radius for radial grids                                 
   RDEPT  =    2.103    core radius for aug-charge                              
                                                                                
   Atomic configuration                                                         
   12 entries                                                                   
     n  l   j            E        occ.                                          
     1  0  0.50    -24164.6631   2.0000                                         
     2  0  0.50     -3530.9218   2.0000                                         
     2  1  1.50     -3165.6822   6.0000                                         
     3  0  0.50      -639.4577   2.0000                                         
     3  1  1.50      -519.4532   6.0000                                         
     3  2  2.50      -328.9757  10.0000                                         
     4  0  0.50       -88.7014   2.0000                                         
     4  1  1.50       -54.4540   6.0000                                         
     4  2  2.50        -6.6878   9.0000                                         
     5  0  0.50        -4.3543   1.0000                                         
     5  1  0.50        -1.3606   0.0000                                         
     4  3  2.50        -1.3606   0.0000                                         
   Description                                                                  
     l       E           TYP  RCUT    TYP  RCUT                                 
     2     -6.6878251     23  2.400                                             
     2     -8.0484077     23  2.400                                             
     0     -4.3542939     23  2.400                                             
     0      4.3406793     23  2.400                                             
     1     -4.0817478     23  2.600                                             
     1     15.8380318     23  2.600                                             
     3     -4.0817478     23  2.400                                             
  local pseudopotential read in
  partial core-charges read in
  partial kinetic energy density read in
  atomic valenz-charges read in
  non local Contribution for L=           2  read in
    real space projection operators read in
  non local Contribution for L=           2  read in
    real space projection operators read in
  non local Contribution for L=           0  read in
    real space projection operators read in
  non local Contribution for L=           0  read in
    real space projection operators read in
  non local Contribution for L=           1  read in
    real space projection operators read in
  non local Contribution for L=           1  read in
    real space projection operators read in
    PAW grid and wavefunctions read in
 
   number of l-projection  operators is LMAX  =           6
   number of lm-projection operators is LMMAX =          18
 
 POTCAR:    PAW_PBE N 08Apr2002                   
   VRHFIN =N: s2p3                                                              
   LEXCH  = PE                                                                  
   EATOM  =   264.5486 eV,   19.4438 Ry                                         
                                                                                
   TITEL  = PAW_PBE N 08Apr2002                                                 
   LULTRA =        F    use ultrasoft PP ?                                      
   IUNSCR =        1    unscreen: 0-lin 1-nonlin 2-no                           
   RPACOR =    1.200    partial core radius                                     
   POMASS =   14.001; ZVAL   =    5.000    mass and valenz                      
   RCORE  =    1.500    outmost cutoff radius                                   
   RWIGS  =    1.400; RWIGS  =    0.741    wigner-seitz radius (au A)           
   ENMAX  =  400.000; ENMIN  =  300.000 eV                                      
   ICORE  =        2    local potential                                         
   LCOR   =        T    correct aug charges                                     
   LPAW   =        T    paw PP                                                  
   EAUG   =  627.112                                                            
   DEXC   =    0.000                                                            
   RMAX   =    1.529    core radius for proj-oper                               
   RAUG   =    1.300    factor for augmentation sphere                          
   RDEP   =    1.514    radius for radial grids                                 
   RDEPT  =    1.338    core radius for aug-charge                              
                                                                                
   Atomic configuration                                                         
    4 entries                                                                   
     n  l   j            E        occ.                                          
     1  0  0.50      -384.7179   2.0000                                         
     2  0  0.50       -18.5828   2.0000                                         
     2  1  0.50        -7.0898   3.0000                                         
     3  2  1.50        -6.8029   0.0000                                         
   Description                                                                  
     l       E           TYP  RCUT    TYP  RCUT                                 
     0    -18.5828119     23  1.200                                             
     0    -13.5018863     23  1.200                                             
     1     -7.0897853     23  1.500                                             
     1      9.5240782     23  1.500                                             
     2     -6.8029130      7  1.500                                             
  local pseudopotential read in
  partial core-charges read in
  partial kinetic energy density read in
  atomic valenz-charges read in
  non local Contribution for L=           0  read in
    real space projection operators read in
  non local Contribution for L=           0  read in
    real space projection operators read in
  non local Contribution for L=           1  read in
    real space projection operators read in
  non local Contribution for L=           1  read in
    real space projection operators read in
    PAW grid and wavefunctions read in
 
   number of l-projection  operators is LMAX  =           4
   number of lm-projection operators is LMMAX =           8
 
 POTCAR:    PAW_PBE O 08Apr2002                   
   VRHFIN =O: s2p4                                                              
   LEXCH  = PE                                                                  
   EATOM  =   432.3788 eV,   31.7789 Ry                                         
                                                                                
   TITEL  = PAW_PBE O 08Apr2002                                                 
   LULTRA =        F    use ultrasoft PP ?                                      
   IUNSCR =        1    unscreen: 0-lin 1-nonlin 2-no                           
   RPACOR =    1.200    partial core radius                                     
   POMASS =   16.000; ZVAL   =    6.000    mass and valenz                      
   RCORE  =    1.520    outmost cutoff radius                                   
   RWIGS  =    1.550; RWIGS  =    0.820    wigner-seitz radius (au A)           
   ENMAX  =  400.000; ENMIN  =  300.000 eV                                      
   ICORE  =        2    local potential                                         
   LCOR   =        T    correct aug charges                                     
   LPAW   =        T    paw PP                                                  
   EAUG   =  605.392                                                            
   DEXC   =    0.000                                                            
   RMAX   =    1.553    core radius for proj-oper                               
   RAUG   =    1.300    factor for augmentation sphere                          
   RDEP   =    1.550    radius for radial grids                                 
   RDEPT  =    1.329    core radius for aug-charge                              
                                                                                
   Atomic configuration                                                         
    4 entries                                                                   
     n  l   j            E        occ.                                          
     1  0  0.50      -514.6923   2.0000                                         
     2  0  0.50       -23.9615   2.0000                                         
     2  1  0.50        -9.0305   4.0000                                         
     3  2  1.50        -9.5241   0.0000                                         
   Description                                                                  
     l       E           TYP  RCUT    TYP  RCUT                                 
     0    -23.9615318     23  1.200                                             
     0     -9.5240782     23  1.200                                             
     1     -9.0304911     23  1.520                                             
     1      8.1634956     23  1.520                                             
     2     -9.5240782      7  1.500                                             
  local pseudopotential read in
  partial core-charges read in
  partial kinetic energy density read in
  kinetic energy density of atom read in
  atomic valenz-charges read in
  non local Contribution for L=           0  read in
    real space projection operators read in
  non local Contribution for L=           0  read in
    real space projection operators read in
  non local Contribution for L=           1  read in
    real space projection operators read in
  non local Contribution for L=           1  read in
    real space projection operators read in
    PAW grid and wavefunctions read in
 
   number of l-projection  operators is LMAX  =           4
   number of lm-projection operators is LMMAX =           8
 

 ----------------------------------------------------------------------------- 
|                                                                             |
|  ADVICE TO THIS USER RUNNING 'VASP/VAMP'   (HEAR YOUR MASTER'S VOICE ...):  |
|                                                                             |
|      You have a (more or less) 'large supercell' and for larger cells       |
|      it might be more efficient to use real space projection opertators     |
|      So try LREAL= Auto  in the INCAR   file.                               |
|      Mind:          For very  accurate calculation you might also keep the  |
|      reciprocal projection scheme          (i.e. LREAL=.FALSE.)             |
|                                                                             |
 ----------------------------------------------------------------------------- 

  PAW_PBE Pd 04Jan2005                  :
 energy of atom  1       EATOM= -809.7530
 kinetic energy error for atom=    0.0091 (will be added to EATOM!!)
  PAW_PBE N 08Apr2002                   :
 energy of atom  2       EATOM= -264.5486
 kinetic energy error for atom=    0.0736 (will be added to EATOM!!)
  PAW_PBE O 08Apr2002                   :
 energy of atom  3       EATOM= -432.3788
 kinetic energy error for atom=    0.1156 (will be added to EATOM!!)
 
 
 POSCAR: Pd  N  O                                
  positions in direct lattice
  velocities in cartesian coordinates
 exchange correlation table for  LEXCH =        8
   RHO(1)=    0.500       N(1)  =     2000
   RHO(2)=  100.500       N(2)  =     4000

 VTST: version 3.2, (02/03/18)

 CHAIN: initializing optimizer
 
 OPT: Using VASP Dynamics algorithm
 CHAIN: Read ICHAIN            0
 
 POSCAR: Pd  N  O                                
  positions in direct lattice
  velocities in cartesian coordinates
 


--------------------------------------------------------------------------------------------------------


 ion  position               nearest neighbor table
   1  0.000  0.000  0.344-  20 2.79  29 2.79  17 2.79   8 2.79   2 2.79   4 2.79   5 2.79  14 2.79
                            13 2.79
   2  0.250  0.000  0.344-  17 2.79  30 2.79  18 2.79   5 2.79   1 2.79   3 2.79   6 2.79  15 2.79
                            14 2.79
   3  0.500  0.000  0.344-  18 2.79  31 2.79  19 2.79   6 2.79   2 2.79   4 2.79   7 2.79  16 2.79
                            15 2.79
   4  0.750  0.000  0.344-  19 2.79  32 2.79  20 2.79   7 2.79   1 2.79   3 2.79   8 2.79  13 2.79
                            16 2.79
   5  0.000  0.250  0.344-  24 2.79  17 2.79  21 2.79  12 2.79   2 2.79   6 2.79   8 2.79   1 2.79
                             9 2.79
   6  0.250  0.250  0.344-  21 2.79  18 2.79  22 2.79   9 2.79   3 2.79   5 2.79   7 2.79  10 2.79
                             2 2.79
   7  0.500  0.250  0.344-  22 2.79  19 2.79  23 2.79  10 2.79   4 2.79   6 2.79   8 2.79  11 2.79
                             3 2.79
   8  0.750  0.250  0.344-  23 2.79  20 2.79  24 2.79  11 2.79   1 2.79   5 2.79   7 2.79  12 2.79
                             4 2.79
   9  0.000  0.500  0.344-  13 2.79  21 2.79  25 2.79  16 2.79  10 2.79  28 2.79   6 2.79   5 2.79
                            12 2.79
  10  0.250  0.500  0.344-  13 2.79  14 2.79  25 2.79  22 2.79   9 2.79  26 2.79   7 2.79  11 2.79
                             6 2.79
  11  0.500  0.500  0.344-  14 2.79  15 2.79  26 2.79  23 2.79  27 2.79   8 2.79  12 2.79  10 2.79
                             7 2.79
  12  0.750  0.500  0.344-  15 2.79  16 2.79  27 2.79  24 2.79  28 2.79   5 2.79  11 2.79   8 2.79
                             9 2.79
  13  0.000  0.750  0.344-  25 2.79   9 2.79  10 2.79  32 2.79  29 2.79  16 2.79  14 2.79   4 2.79
                             1 2.79
  14  0.250  0.750  0.344-  26 2.79  11 2.79  10 2.79  29 2.79  30 2.79  15 2.79  13 2.79   1 2.79
                             2 2.79
  15  0.500  0.750  0.344-  27 2.79  12 2.79  11 2.79  30 2.79  31 2.79  16 2.79  14 2.79   2 2.79
                             3 2.79
  16  0.750  0.750  0.344-  28 2.79  12 2.79   9 2.79  31 2.79  32 2.79  15 2.79  13 2.79   3 2.79
                             4 2.79
  17  0.083  0.083  0.448-   2 2.79   5 2.79   1 2.79  24 2.79  30 2.79  18 2.79  20 2.79  29 2.79
                            21 2.79  34 2.80  33 2.80  46 2.80
  18  0.333  0.083  0.448-   3 2.79   6 2.79   2 2.79  21 2.79  31 2.79  17 2.79  19 2.79  30 2.79
                            22 2.79  35 2.80  34 2.80  47 2.80
  19  0.583  0.083  0.448-   4 2.79   7 2.79   3 2.79  22 2.79  32 2.79  18 2.79  20 2.79  31 2.79
                            23 2.79  36 2.80  35 2.80  48 2.80
  20  0.833  0.083  0.448-   1 2.79   8 2.79   4 2.79  23 2.79  29 2.79  17 2.79  19 2.79  24 2.79
                            32 2.79  33 2.80  36 2.80  45 2.80
  21  0.083  0.333  0.448-   6 2.79   9 2.79   5 2.79  18 2.79  28 2.79  24 2.79  22 2.79  25 2.79
                            17 2.79  38 2.80  37 2.80  34 2.80
  22  0.333  0.333  0.448-   7 2.79  10 2.79   6 2.79  19 2.79  25 2.79  23 2.79  21 2.79  18 2.79
                            26 2.79  39 2.80  38 2.80  35 2.80
  23  0.583  0.333  0.448-   8 2.79  11 2.79   7 2.79  20 2.79  26 2.79  24 2.79  22 2.79  19 2.79
                            27 2.79  40 2.80  39 2.80  36 2.80
  24  0.833  0.333  0.448-   5 2.79  12 2.79   8 2.79  17 2.79  27 2.79  23 2.79  21 2.79  20 2.79
                            28 2.79  37 2.80  40 2.80  33 2.80
  25  0.083  0.583  0.448-  13 2.79  10 2.79   9 2.79  22 2.79  32 2.79  28 2.79  26 2.79  29 2.79
                            21 2.79  42 2.80  41 2.80  38 2.80
  26  0.333  0.583  0.448-  14 2.79  11 2.79  10 2.79  23 2.79  29 2.79  27 2.79  25 2.79  22 2.79
                            30 2.79  43 2.80  42 2.80  39 2.80
  27  0.583  0.583  0.448-  15 2.79  12 2.79  11 2.79  24 2.79  30 2.79  28 2.79  26 2.79  23 2.79
                            31 2.79  44 2.80  43 2.80  40 2.80
  28  0.833  0.583  0.448-  16 2.79   9 2.79  12 2.79  21 2.79  31 2.79  27 2.79  25 2.79  24 2.79
                            32 2.79  41 2.80  44 2.80  37 2.80
  29  0.083  0.833  0.448-   1 2.79  14 2.79  13 2.79  20 2.79  26 2.79  30 2.79  32 2.79  25 2.79
                            17 2.79  46 2.80  45 2.80  42 2.80
  30  0.333  0.833  0.448-   2 2.79  15 2.79  14 2.79  17 2.79  27 2.79  29 2.79  31 2.79  26 2.79
                            18 2.79  47 2.80  46 2.80  43 2.80
  31  0.583  0.833  0.448-   3 2.79  16 2.79  15 2.79  18 2.79  28 2.79  30 2.79  32 2.79  27 2.79
                            19 2.79  48 2.80  47 2.80  44 2.80
  32  0.833  0.833  0.448-   4 2.79  13 2.79  16 2.79  19 2.79  25 2.79  29 2.79  31 2.79  20 2.79
                            28 2.79  45 2.80  48 2.80  41 2.80
  33  0.917  0.167  0.553-  40 2.79  46 2.79  34 2.79  36 2.79  45 2.79  37 2.79  20 2.80  17 2.80
                            24 2.80  56 2.82  49 2.82  53 2.82
  34  0.167  0.167  0.553-  37 2.79  47 2.79  33 2.79  35 2.79  46 2.79  38 2.79  17 2.80  18 2.80
                            21 2.80  53 2.82  50 2.82  54 2.82
  35  0.417  0.167  0.553-  38 2.79  48 2.79  34 2.79  36 2.79  47 2.79  39 2.79  18 2.80  19 2.80
                            22 2.80  54 2.82  51 2.82  55 2.82
  36  0.667  0.167  0.553-  39 2.79  45 2.79  33 2.79  35 2.79  40 2.79  48 2.79  19 2.80  20 2.80
                            23 2.80  55 2.82  52 2.82  56 2.82
  37  0.917  0.417  0.553-  34 2.79  44 2.79  40 2.79  38 2.79  41 2.79  33 2.79  24 2.80  21 2.80
                            28 2.80  60 2.82  53 2.82  57 2.82
  38  0.167  0.417  0.553-  35 2.79  41 2.79  39 2.79  37 2.79  34 2.79  42 2.79  21 2.80  22 2.80
                            25 2.80  57 2.82  54 2.82  58 2.82
  39  0.417  0.417  0.553-  36 2.79  42 2.79  40 2.79  38 2.79  35 2.79  43 2.79  22 2.80  23 2.80
                            26 2.80  58 2.82  55 2.82  59 2.82
  40  0.667  0.417  0.553-  33 2.79  43 2.79  39 2.79  37 2.79  36 2.79  44 2.79  23 2.80  24 2.80
                            27 2.80  59 2.82  56 2.82  60 2.82
  41  0.917  0.667  0.553-  38 2.79  48 2.79  44 2.79  42 2.79  45 2.79  37 2.79  28 2.80  25 2.80
                            32 2.80  64 2.82  61 2.82  57 2.82
  42  0.167  0.667  0.553-  39 2.79  45 2.79  43 2.79  41 2.79  38 2.79  46 2.79  25 2.80  26 2.80
                            29 2.80  61 2.82  58 2.82  62 2.82
  43  0.417  0.667  0.553-  40 2.79  46 2.79  44 2.79  42 2.79  39 2.79  47 2.79  26 2.80  27 2.80
                            30 2.80  62 2.82  59 2.82  63 2.82
  44  0.667  0.667  0.553-  37 2.79  47 2.79  43 2.79  41 2.79  40 2.79  48 2.79  27 2.80  28 2.80
                            31 2.80  63 2.82  60 2.82  64 2.82
  45  0.917  0.917  0.553-  36 2.79  42 2.79  46 2.79  48 2.79  41 2.79  33 2.79  32 2.80  29 2.80
                            20 2.80  52 2.82  49 2.82  61 2.82
  46  0.167  0.917  0.553-  33 2.79  43 2.79  45 2.79  47 2.79  42 2.79  34 2.79  29 2.80  30 2.80
                            17 2.80  49 2.82  50 2.82  62 2.82
  47  0.417  0.917  0.553-  34 2.79  44 2.79  46 2.79  48 2.79  43 2.79  35 2.79  30 2.80  31 2.80
                            18 2.80  50 2.82  51 2.82  63 2.82
  48  0.667  0.917  0.553-  35 2.79  41 2.79  45 2.79  47 2.79  36 2.79  44 2.79  31 2.80  32 2.80
                            19 2.80  51 2.82  52 2.82  64 2.82
  49  0.000  0.000  0.659-  67 2.16  56 2.79  50 2.79  52 2.79  53 2.79  62 2.79  61 2.79  46 2.82
                            33 2.82  45 2.82
  50  0.250  0.000  0.659-  65 2.04  53 2.79  49 2.79  51 2.79  54 2.79  63 2.79  62 2.79  47 2.82
                            34 2.82  46 2.82
  51  0.500  0.000  0.659-  54 2.79  52 2.79  50 2.79  55 2.79  64 2.79  63 2.79  48 2.82  35 2.82
                            47 2.82
  52  0.750  0.000  0.659-  55 2.79  51 2.79  49 2.79  56 2.79  61 2.79  64 2.79  45 2.82  36 2.82
                            48 2.82
  53  0.000  0.250  0.659-  67 2.42  60 2.79  50 2.79  54 2.79  56 2.79  49 2.79  57 2.79  34 2.82
                            37 2.82  33 2.82
  54  0.250  0.250  0.659-  57 2.79  51 2.79  55 2.79  53 2.79  50 2.79  58 2.79  35 2.82  38 2.82
                            34 2.82
  55  0.500  0.250  0.659-  52 2.79  58 2.79  56 2.79  54 2.79  51 2.79  59 2.79  36 2.82  39 2.82
                            35 2.82
  56  0.750  0.250  0.659-  49 2.79  59 2.79  55 2.79  53 2.79  52 2.79  60 2.79  33 2.82  40 2.82
                            36 2.82
  57  0.000  0.500  0.659-  61 2.79  64 2.79  58 2.79  54 2.79  53 2.79  60 2.79  38 2.82  41 2.82
                            37 2.82
  58  0.250  0.500  0.659-  61 2.79  62 2.79  57 2.79  55 2.79  59 2.79  54 2.79  39 2.82  42 2.82
                            38 2.82
  59  0.500  0.500  0.659-  62 2.79  63 2.79  56 2.79  58 2.79  60 2.79  55 2.79  40 2.82  43 2.82
                            39 2.82
  60  0.750  0.500  0.659-  63 2.79  64 2.79  53 2.79  59 2.79  56 2.79  57 2.79  37 2.82  44 2.82
                            40 2.82
  61  0.000  0.750  0.659-  57 2.79  58 2.79  62 2.79  64 2.79  52 2.79  49 2.79  42 2.82  41 2.82
                            45 2.82
  62  0.250  0.750  0.659-  59 2.79  58 2.79  61 2.79  63 2.79  49 2.79  50 2.79  43 2.82  42 2.82
                            46 2.82
  63  0.500  0.750  0.659-  60 2.79  59 2.79  62 2.79  64 2.79  50 2.79  51 2.79  44 2.82  43 2.82
                            47 2.82
  64  0.750  0.750  0.659-  60 2.79  57 2.79  61 2.79  63 2.79  51 2.79  52 2.79  41 2.82  44 2.82
                            48 2.82
  65  0.246  0.004  0.753-  66 1.18  50 2.04
  66  0.142  0.043  0.780-  65 1.18  67 1.61
  67  1.000  0.106  0.742-  66 1.61  49 2.16  53 2.42
 

IMPORTANT INFORMATION: All symmetrisations will be switched off!
NOSYMM: (Re-)initialisation of all symmetry stuff for point group C_1.

 
 
 KPOINTS: KPOINTS created by Atomic Simulation Env

Automatic generation of k-mesh.
Space group operators:
 irot       det(A)        alpha          n_x          n_y          n_z        tau_x        tau_y        tau_z
    1     1.000000     0.000000     1.000000     0.000000     0.000000     0.000000     0.000000     0.000000
 
 Subroutine IBZKPT returns following result:
 ===========================================
 
 Found      5 irreducible k-points:
 
 Following reciprocal coordinates:
            Coordinates               Weight
  0.000000  0.000000  0.000000      1.000000
  0.333333 -0.000000  0.000000      2.000000
  0.000000  0.333333  0.000000      2.000000
  0.333333  0.333333  0.000000      2.000000
 -0.333333  0.333333  0.000000      2.000000
 
 Following cartesian coordinates:
            Coordinates               Weight
  0.000000  0.000000  0.000000      1.000000
  0.029909 -0.017268  0.000000      2.000000
  0.000000  0.034536  0.000000      2.000000
  0.029909  0.017268  0.000000      2.000000
 -0.029909  0.051804  0.000000      2.000000
 
 
 Subroutine IBZKPT_HF returns following result:
 ==============================================
 
 Found      9 k-points in 1st BZ
 the following      9 k-points will be used (e.g. in the exchange kernel)
 Following reciprocal coordinates:   # in IRBZ
  0.000000  0.000000  0.000000    0.11111111   1 t-inv F
  0.333333 -0.000000  0.000000    0.11111111   2 t-inv F
  0.000000  0.333333  0.000000    0.11111111   3 t-inv F
  0.333333  0.333333  0.000000    0.11111111   4 t-inv F
 -0.333333  0.333333  0.000000    0.11111111   5 t-inv F
 -0.333333  0.000000  0.000000    0.11111111   2 t-inv T
  0.000000 -0.333333  0.000000    0.11111111   3 t-inv T
 -0.333333 -0.333333  0.000000    0.11111111   4 t-inv T
  0.333333 -0.333333  0.000000    0.11111111   5 t-inv T


--------------------------------------------------------------------------------------------------------




 Dimension of arrays:
   k-points           NKPTS =      5   k-points in BZ     NKDIM =      5   number of bands    NBANDS=    400
   number of dos      NEDOS =    301   number of ions     NIONS =     67
   non local maximal  LDIM  =      6   non local SUM 2l+1 LMDIM =     18
   total plane-waves  NPLWV = 338688
   max r-space proj   IRMAX =      1   max aug-charges    IRDMAX=   7197
   dimension x,y,z NGX =    56 NGY =   56 NGZ =  108
   dimension x,y,z NGXF=   112 NGYF=  112 NGZF=  216
   support grid    NGXF=   112 NGYF=  112 NGZF=  216
   ions per type =              64   2   1
   NGX,Y,Z   is equivalent  to a cutoff of   8.35,  8.35,  8.23 a.u.
   NGXF,Y,Z  is equivalent  to a cutoff of  16.71, 16.71, 16.45 a.u.

 SYSTEM =  Si-Diamond                              
 POSCAR =  Pd  N  O                                

 Startparameter for this run:
   NWRITE =      2    write-flag & timer
   PREC   = normal    normal or accurate (medium, high low for compatibility)
   ISTART =      0    job   : 0-new  1-cont  2-samecut
   ICHARG =      2    charge: 1-file 2-atom 10-const
   ISPIN  =      1    spin polarized calculation?
   LNONCOLLINEAR =      F non collinear calculations
   LSORBIT =      F    spin-orbit coupling
   INIWAV =      1    electr: 0-lowe 1-rand  2-diag
   LASPH  =      F    aspherical Exc in radial PAW
   METAGGA=      F    non-selfconsistent MetaGGA calc.

 Electronic Relaxation 1
   ENCUT  =  400.0 eV  29.40 Ry    5.42 a.u.  18.17 18.17 35.59*2*pi/ulx,y,z
   ENINI  =  400.0     initial cutoff
   ENAUG  =  627.1 eV  augmentation charge cutoff
   NELM   =     60;   NELMIN=  5; NELMDL= -5     # of ELM steps 
   EDIFF  = 0.1E-06   stopping-criterion for ELM
   LREAL  =      F    real-space projection
   NLSPLINE    = F    spline interpolate recip. space projectors
   LCOMPAT=      F    compatible to vasp.4.4
   GGA_COMPAT  = T    GGA compatible to vasp.4.4-vasp.4.6
   LMAXPAW     = -100 max onsite density
   LMAXMIX     =    2 max onsite mixed and CHGCAR
   VOSKOWN=      0    Vosko Wilk Nusair interpolation
   ROPT   =    0.00000   0.00000   0.00000
 Ionic relaxation
   EDIFFG = 0.1E-05   stopping-criterion for IOM
   NSW    =    841    number of steps for IOM
   NBLOCK =      1;   KBLOCK =    841    inner block; outer block 
   IBRION =      5    ionic relax: 0-MD 1-quasi-New 2-CG
   NFREE  =      2    steps in history (QN), initial steepest desc. (CG)
   ISIF   =      2    stress and relaxation
   IWAVPR =     11    prediction:  0-non 1-charg 2-wave 3-comb
   ISYM   =      0    0-nonsym 1-usesym 2-fastsym
   LCORR  =      T    Harris-Foulkes like correction to forces

   POTIM  = 0.0020    time-step for ionic-motion
   TEIN   =    0.0    initial temperature
   TEBEG  =    0.0;   TEEND  =   0.0 temperature during run
   SMASS  =  -3.00    Nose mass-parameter (am)
   estimated Nose-frequenzy (Omega)   =  0.10E-29 period in steps =****** mass=  -0.284E-26a.u.
   SCALEE = 1.0000    scale energy and forces
   NPACO  =    256;   APACO  = 16.0  distance and # of slots for P.C.
   PSTRESS=    0.0 pullay stress

  Mass of Ions in am
   POMASS = 106.42 14.00 16.00
  Ionic Valenz
   ZVAL   =  10.00  5.00  6.00
  Atomic Wigner-Seitz radii
   RWIGS  =  -1.00 -1.00 -1.00
  virtual crystal weights 
   VCA    =   1.00  1.00  1.00
   NELECT =     656.0000    total number of electrons
   NUPDOWN=      -1.0000    fix difference up-down

 DOS related values:
   EMIN   =  10.00;   EMAX   =-10.00  energy-range for DOS
   EFERMI =   0.00
   ISMEAR =     1;   SIGMA  =   0.20  broadening in eV -4-tet -1-fermi 0-gaus

 Electronic relaxation 2 (details)
   IALGO  =     38    algorithm
   LDIAG  =      T    sub-space diagonalisation (order eigenvalues)
   LSUBROT=      F    optimize rotation matrix (better conditioning)
   TURBO    =      0    0=normal 1=particle mesh
   IRESTART =      0    0=no restart 2=restart with 2 vectors
   NREBOOT  =      0    no. of reboots
   NMIN     =      0    reboot dimension
   EREF     =   0.00    reference energy to select bands
   IMIX   =      4    mixing-type and parameters
     AMIX     =   0.40;   BMIX     =  1.00
     AMIX_MAG =   1.60;   BMIX_MAG =  1.00
     AMIN     =   0.10
     WC   =   100.;   INIMIX=   1;  MIXPRE=   1;  MAXMIX= -45

 Intra band minimization:
   WEIMIN = 0.0010     energy-eigenvalue tresh-hold
   EBREAK =  0.62E-10  absolut break condition
   DEPER  =   0.30     relativ break condition  

   TIME   =   0.40     timestep for ELM

  volume/ion in A,a.u.               =      35.04       236.46
  Fermi-wavevector in a.u.,A,eV,Ry     =   1.070281  2.022538 15.585492  1.145501
  Thomas-Fermi vector in A             =   2.205986
 
 Write flags
   LWAVE        =      F    write WAVECAR
   LDOWNSAMPLE  =      F    k-point downsampling of WAVECAR
   LCHARG       =      F    write CHGCAR
   LVTOT        =      F    write LOCPOT, total local potential
   LVHAR        =      F    write LOCPOT, Hartree potential only
   LELF         =      F    write electronic localiz. function (ELF)
   LORBIT       =      0    0 simple, 1 ext, 2 COOP (PROOUT), +10 PAW based schemes


 Dipole corrections
   LMONO  =      F    monopole corrections only (constant potential shift)
   LDIPOL =      F    correct potential (dipole corrections)
   IDIPOL =      0    1-x, 2-y, 3-z, 4-all directions 
   EPSILON=  1.0000000 bulk dielectric constant

 Exchange correlation treatment:
   GGA     =    --    GGA type
   LEXCH   =     8    internal setting for exchange type
   VOSKOWN=      0    Vosko Wilk Nusair interpolation
   LHFCALC =     F    Hartree Fock is set to
   LHFONE  =     F    Hartree Fock one center treatment
   AEXX    =    0.0000 exact exchange contribution

 Linear response parameters
   LEPSILON=     F    determine dielectric tensor
   LRPA    =     F    only Hartree local field effects (RPA)
   LNABLA  =     F    use nabla operator in PAW spheres
   LVEL    =     F    velocity operator in full k-point grid
   LINTERFAST=   F  fast interpolation
   KINTER  =     0    interpolate to denser k-point grid
   CSHIFT  =0.1000    complex shift for real part using Kramers Kronig
   OMEGAMAX=  -1.0    maximum frequency
   DEG_THRESHOLD= 0.2000000E-02 threshold for treating states as degnerate
   RTIME   =   -0.100 relaxation time in fs
  (WPLASMAI=    0.000 imaginary part of plasma frequency in eV, 0.658/RTIME)
   DFIELD  = 0.0000000 0.0000000 0.0000000 field for delta impulse in time
 
 Orbital magnetization related:
   ORBITALMAG=     F  switch on orbital magnetization
   LCHIMAG   =     F  perturbation theory with respect to B field
   DQ        =  0.001000  dq finite difference perturbation B field
   LLRAUG    =     F  two centre corrections for induced B field



--------------------------------------------------------------------------------------------------------


 finite differences
   using selective dynamics as specified on POSCAR
 charge density and potential will be updated during run
 non-spin polarized calculation
 Variant of blocked Davidson
 Davidson routine will perform the subspace rotation
 perform sub-space diagonalisation
    after iterative eigenvector-optimisation
 modified Broyden-mixing scheme, WC =      100.0
 initial mixing is a Kerker type mixing with AMIX =  0.4000 and BMIX =      1.0000
 Hartree-type preconditioning will be used
 using additional bands           72
 reciprocal scheme for non local part
 use partial core corrections
 calculate Harris-corrections to forces 
   (improved forces if not selfconsistent)
 use gradient corrections 
 use of overlap-Matrix (Vanderbilt PP)
 Methfessel and Paxton  Order N= 1 SIGMA  =   0.20


--------------------------------------------------------------------------------------------------------


  energy-cutoff  :      400.00
  volume of cell :     2347.66
      direct lattice vectors                 reciprocal lattice vectors
    11.144911900  0.000000000  0.000000000     0.089727044 -0.051803933  0.000000000
     5.572455950  9.651776828  0.000000000     0.000000000  0.103607866  0.000000000
     0.000000000  0.000000000 21.824836846     0.000000000  0.000000000  0.045819357

  length of vectors
    11.144911900 11.144911900 21.824836846     0.103607866  0.103607866  0.045819357


 
 k-points in units of 2pi/SCALE and weight: KPOINTS created by Atomic Simulation Env
   0.00000000  0.00000000  0.00000000       0.111
   0.02990901 -0.01726798  0.00000000       0.222
   0.00000000  0.03453596  0.00000000       0.222
   0.02990901  0.01726798  0.00000000       0.222
  -0.02990901  0.05180393  0.00000000       0.222
 
 k-points in reciprocal lattice and weights: KPOINTS created by Atomic Simulation Env
   0.00000000  0.00000000  0.00000000       0.111
   0.33333333 -0.00000000  0.00000000       0.222
   0.00000000  0.33333333  0.00000000       0.222
   0.33333333  0.33333333  0.00000000       0.222
  -0.33333333  0.33333333  0.00000000       0.222
 
 position of ions in fractional coordinates (direct lattice) 
   0.00000000  0.00000000  0.34364518
   0.25000000  0.00000000  0.34364518
   0.50000000  0.00000000  0.34364518
   0.75000000  0.00000000  0.34364518
   0.00000000  0.25000000  0.34364518
   0.25000000  0.25000000  0.34364518
   0.50000000  0.25000000  0.34364518
   0.75000000  0.25000000  0.34364518
   0.00000000  0.50000000  0.34364518
   0.25000000  0.50000000  0.34364518
   0.50000000  0.50000000  0.34364518
   0.75000000  0.50000000  0.34364518
   0.00000000  0.75000000  0.34364518
   0.25000000  0.75000000  0.34364518
   0.50000000  0.75000000  0.34364518
   0.75000000  0.75000000  0.34364518
   0.08333333  0.08333333  0.44788173
   0.33333333  0.08333333  0.44788173
   0.58333333  0.08333333  0.44788173
   0.83333333  0.08333333  0.44788173
   0.08333333  0.33333333  0.44788173
   0.33333333  0.33333333  0.44788173
   0.58333333  0.33333333  0.44788173
   0.83333333  0.33333333  0.44788173
   0.08333333  0.58333333  0.44788173
   0.33333333  0.58333333  0.44788173
   0.58333333  0.58333333  0.44788173
   0.83333333  0.58333333  0.44788173
   0.08333333  0.83333333  0.44788173
   0.33333333  0.83333333  0.44788173
   0.58333333  0.83333333  0.44788173
   0.83333333  0.83333333  0.44788173
   0.91666667  0.16666667  0.55312823
   0.16666667  0.16666667  0.55312823
   0.41666667  0.16666667  0.55312823
   0.66666667  0.16666667  0.55312823
   0.91666667  0.41666667  0.55312823
   0.16666667  0.41666667  0.55312823
   0.41666667  0.41666667  0.55312823
   0.66666667  0.41666667  0.55312823
   0.91666667  0.66666667  0.55312823
   0.16666667  0.66666667  0.55312823
   0.41666667  0.66666667  0.55312823
   0.66666667  0.66666667  0.55312823
   0.91666667  0.91666667  0.55312823
   0.16666667  0.91666667  0.55312823
   0.41666667  0.91666667  0.55312823
   0.66666667  0.91666667  0.55312823
   0.00000000  0.00000000  0.65939211
   0.25000000  0.00000000  0.65939211
   0.50000000  0.00000000  0.65939211
   0.75000000  0.00000000  0.65939211
   0.00000000  0.25000000  0.65939211
   0.25000000  0.25000000  0.65939211
   0.50000000  0.25000000  0.65939211
   0.75000000  0.25000000  0.65939211
   0.00000000  0.50000000  0.65939211
   0.25000000  0.50000000  0.65939211
   0.50000000  0.50000000  0.65939211
   0.75000000  0.50000000  0.65939211
   0.00000000  0.75000000  0.65939211
   0.25000000  0.75000000  0.65939211
   0.50000000  0.75000000  0.65939211
   0.75000000  0.75000000  0.65939211
   0.24605750  0.00392377  0.75272840
   0.14211391  0.04286646  0.78020695
   0.99965657  0.10579167  0.74216934
 
 position of ions in cartesian coordinates  (Angst):
   0.00000000  0.00000000  7.50000000
   2.78622797  0.00000000  7.50000000
   5.57245595  0.00000000  7.50000000
   8.35868392  0.00000000  7.50000000
   1.39311399  2.41294421  7.50000000
   4.17934196  2.41294421  7.50000000
   6.96556994  2.41294421  7.50000000
   9.75179791  2.41294421  7.50000000
   2.78622797  4.82588841  7.50000000
   5.57245595  4.82588841  7.50000000
   8.35868392  4.82588841  7.50000000
  11.14491190  4.82588841  7.50000000
   4.17934196  7.23883262  7.50000000
   6.96556994  7.23883262  7.50000000
   9.75179791  7.23883262  7.50000000
  12.53802589  7.23883262  7.50000000
   1.39311399  0.80431474  9.77494562
   4.17934196  0.80431474  9.77494562
   6.96556994  0.80431474  9.77494562
   9.75179791  0.80431474  9.77494562
   2.78622797  3.21725894  9.77494562
   5.57245595  3.21725894  9.77494562
   8.35868392  3.21725894  9.77494562
  11.14491190  3.21725894  9.77494562
   4.17934196  5.63020315  9.77494562
   6.96556994  5.63020315  9.77494562
   9.75179791  5.63020315  9.77494562
  12.53802589  5.63020315  9.77494562
   5.57245595  8.04314736  9.77494562
   8.35868392  8.04314736  9.77494562
  11.14491190  8.04314736  9.77494562
  13.93113987  8.04314736  9.77494562
  11.14491190  1.60862947 12.07193337
   2.78622797  1.60862947 12.07193337
   5.57245595  1.60862947 12.07193337
   8.35868392  1.60862947 12.07193337
  12.53802589  4.02157368 12.07193337
   4.17934196  4.02157368 12.07193337
   6.96556994  4.02157368 12.07193337
   9.75179791  4.02157368 12.07193337
  13.93113987  6.43451789 12.07193337
   5.57245595  6.43451789 12.07193337
   8.35868392  6.43451789 12.07193337
  11.14491190  6.43451789 12.07193337
  15.32425386  8.84746209 12.07193337
   6.96556994  8.84746209 12.07193337
   9.75179791  8.84746209 12.07193337
  12.53802589  8.84746209 12.07193337
   0.00000000  0.00000000 14.39112528
   2.78622797  0.00000000 14.39112528
   5.57245595  0.00000000 14.39112528
   8.35868392  0.00000000 14.39112528
   1.39311399  2.41294421 14.39112528
   4.17934196  2.41294421 14.39112528
   6.96556994  2.41294421 14.39112528
   9.75179791  2.41294421 14.39112528
   2.78622797  4.82588841 14.39112528
   5.57245595  4.82588841 14.39112528
   8.35868392  4.82588841 14.39112528
  11.14491190  4.82588841 14.39112528
   4.17934196  7.23883262 14.39112528
   6.96556994  7.23883262 14.39112528
   9.75179791  7.23883262 14.39112528
  12.53802589  7.23883262 14.39112528
   2.76415420  0.03787138 16.42817457
   1.82271842  0.41373746 17.02788937
  11.73060386  1.02107762 16.19772478
 


--------------------------------------------------------------------------------------------------------


 k-point  1 :   0.0000 0.0000 0.0000  plane waves:   42623
 k-point  2 :   0.3333-0.0000 0.0000  plane waves:   42642
 k-point  3 :   0.0000 0.3333 0.0000  plane waves:   42642
 k-point  4 :   0.3333 0.3333 0.0000  plane waves:   42642
 k-point  5 :  -0.3333 0.3333 0.0000  plane waves:   42738

 maximum and minimum number of plane-waves per node :      2720     2618

 maximum number of plane-waves:     42738
 maximum index in each direction: 
   IXMAX=   18   IYMAX=   18   IZMAX=   35
   IXMIN=  -18   IYMIN=  -18   IZMIN=  -35


 parallel 3D FFT for wavefunctions:
    minimum data exchange during FFTs selected (reduces bandwidth)
 parallel 3D FFT for charge:
    minimum data exchange during FFTs selected (reduces bandwidth)


 total amount of memory used by VASP MPI-rank0    53833. kBytes
=======================================================================

   base      :      30000. kBytes
   nonl-proj :       8635. kBytes
   fftplans  :       1583. kBytes
   grid      :       2530. kBytes
   one-center:         77. kBytes
   wavefun   :      11008. kBytes
 
     INWAV:  cpu time    0.0000: real time    0.0000
 Broyden mixing: mesh for mixing (old mesh)
   NGX = 37   NGY = 37   NGZ = 71
  (NGX  =112   NGY  =112   NGZ  =216)
  gives a total of  97199 points

 initial charge density was supplied:
 charge density of overlapping atoms calculated
 number of electron     656.0000000 magnetization 
 keeping initial charge density in first step


--------------------------------------------------------------------------------------------------------


 Maximum index for augmentation-charges          394 (set IRDMAX)


--------------------------------------------------------------------------------------------------------


 First call to EWALD:  gamma=   0.133
 Maximum number of real-space cells 4x 4x 2
 Maximum number of reciprocal cells 2x 2x 4

    FEWALD:  cpu time    0.0026: real time    0.0031


--------------------------------------- Iteration      1(   1)  ---------------------------------------


    POTLOK:  cpu time    0.0188: real time    0.0333
    SETDIJ:  cpu time    0.0086: real time    0.0092
     EDDAV:  cpu time    5.8246: real time    5.8595
       DOS:  cpu time    0.0022: real time    0.0026
    --------------------------------------------
      LOOP:  cpu time    5.8542: real time    5.9046

 eigenvalue-minimisations  :  4072
 total energy-change (2. order) : 0.3816642E+04  (-0.2667482E+05)
 number of electron     656.0000000 magnetization 
 augmentation part      656.0000000 magnetization 

 Free energy of the ion-electron system (eV)
  ---------------------------------------------------
  alpha Z        PSCENC =      1184.06556306
  Ewald energy   TEWEN  =    164832.67770576
  -Hartree energ DENC   =   -220079.99871734
  -exchange      EXHF   =         0.00000000
  -V(xc)+E(xc)   XCENC  =     -1822.94932208
  PAW double counting   =     52387.66707066   -48409.62114609
  entropy T*S    EENTRO =        -0.00999279
  eigenvalues    EBANDS =      2939.98841711
  atomic energy  EATOM  =     52784.82232594
  Solvation  Ediel_sol  =         0.00000000
  ---------------------------------------------------
  free energy    TOTEN  =      3816.64190422 eV

  energy without entropy =     3816.65189701  energy(sigma->0) =     3816.64523515


--------------------------------------------------------------------------------------------------------




--------------------------------------- Iteration      1(   2)  ---------------------------------------


     EDDAV:  cpu time    6.2380: real time    6.2402
       DOS:  cpu time    0.0014: real time    0.0014
    --------------------------------------------
      LOOP:  cpu time    6.2394: real time    6.2416

 eigenvalue-minimisations  :  4456
 total energy-change (2. order) :-0.3937737E+04  (-0.3682893E+04)
 number of electron     656.0000000 magnetization 
 augmentation part      656.0000000 magnetization 

 Free energy of the ion-electron system (eV)
  ---------------------------------------------------
  alpha Z        PSCENC =      1184.06556306
  Ewald energy   TEWEN  =    164832.67770576
  -Hartree energ DENC   =   -220079.99871734
  -exchange      EXHF   =         0.00000000
  -V(xc)+E(xc)   XCENC  =     -1822.94932208
  PAW double counting   =     52387.66707066   -48409.62114609
  entropy T*S    EENTRO =         0.03056416
  eigenvalues    EBANDS =      -997.78903274
  atomic energy  EATOM  =     52784.82232594
  Solvation  Ediel_sol  =         0.00000000
  ---------------------------------------------------
  free energy    TOTEN  =      -121.09498868 eV

  energy without entropy =     -121.12555284  energy(sigma->0) =     -121.10517673


--------------------------------------------------------------------------------------------------------




--------------------------------------- Iteration      1(   3)  ---------------------------------------


     EDDAV:  cpu time    6.2609: real time    6.2626
       DOS:  cpu time    0.0014: real time    0.0014
    --------------------------------------------
      LOOP:  cpu time    6.2623: real time    6.2640

 eigenvalue-minimisations  :  4488
 total energy-change (2. order) :-0.2246876E+03  (-0.1996577E+03)
 number of electron     656.0000000 magnetization 
 augmentation part      656.0000000 magnetization 

 Free energy of the ion-electron system (eV)
  ---------------------------------------------------
  alpha Z        PSCENC =      1184.06556306
  Ewald energy   TEWEN  =    164832.67770576
  -Hartree energ DENC   =   -220079.99871734
  -exchange      EXHF   =         0.00000000
  -V(xc)+E(xc)   XCENC  =     -1822.94932208
  PAW double counting   =     52387.66707066   -48409.62114609
  entropy T*S    EENTRO =        -0.14303266
  eigenvalues    EBANDS =     -1222.30300706
  atomic energy  EATOM  =     52784.82232594
  Solvation  Ediel_sol  =         0.00000000
  ---------------------------------------------------
  free energy    TOTEN  =      -345.78255982 eV

  energy without entropy =     -345.63952715  energy(sigma->0) =     -345.73488226


--------------------------------------------------------------------------------------------------------




--------------------------------------- Iteration      1(   4)  ---------------------------------------


     EDDAV:  cpu time    6.4806: real time    6.4990
       DOS:  cpu time    0.0015: real time    0.0015
    --------------------------------------------
      LOOP:  cpu time    6.4821: real time    6.5005

 eigenvalue-minimisations  :  4688
 total energy-change (2. order) :-0.8452312E+01  (-0.8134284E+01)
 number of electron     656.0000000 magnetization 
 augmentation part      656.0000000 magnetization 

 Free energy of the ion-electron system (eV)
  ---------------------------------------------------
  alpha Z        PSCENC =      1184.06556306
  Ewald energy   TEWEN  =    164832.67770576
  -Hartree energ DENC   =   -220079.99871734
  -exchange      EXHF   =         0.00000000
  -V(xc)+E(xc)   XCENC  =     -1822.94932208
  PAW double counting   =     52387.66707066   -48409.62114609
  entropy T*S    EENTRO =        -0.17567065
  eigenvalues    EBANDS =     -1230.72268154
  atomic energy  EATOM  =     52784.82232594
  Solvation  Ediel_sol  =         0.00000000
  ---------------------------------------------------
  free energy    TOTEN  =      -354.23487228 eV

  energy without entropy =     -354.05920164  energy(sigma->0) =     -354.17631540


--------------------------------------------------------------------------------------------------------




--------------------------------------- Iteration      1(   5)  ---------------------------------------


     EDDAV:  cpu time    7.6427: real time    7.6478
       DOS:  cpu time    0.0016: real time    0.0016
    CHARGE:  cpu time    0.0997: real time    0.0998
    MIXING:  cpu time    0.0038: real time    0.0305
    --------------------------------------------
      LOOP:  cpu time    7.7478: real time    7.7797

 eigenvalue-minimisations  :  5776
 total energy-change (2. order) :-0.3257070E+00  (-0.3226862E+00)
 number of electron     655.9999687 magnetization 
 augmentation part      259.2101547 magnetization 

 Broyden mixing:
  rms(total) = 0.50163E+01    rms(broyden)= 0.50157E+01
  rms(prec ) = 0.51439E+01
  weight for this iteration     100.00

 Free energy of the ion-electron system (eV)
  ---------------------------------------------------
  alpha Z        PSCENC =      1184.06556306
  Ewald energy   TEWEN  =    164832.67770576
  -Hartree energ DENC   =   -220079.99871734
  -exchange      EXHF   =         0.00000000
  -V(xc)+E(xc)   XCENC  =     -1822.94932208
  PAW double counting   =     52387.66707066   -48409.62114609
  entropy T*S    EENTRO =        -0.17807081
  eigenvalues    EBANDS =     -1231.04598840
  atomic energy  EATOM  =     52784.82232594
  Solvation  Ediel_sol  =         0.00000000
  ---------------------------------------------------
  free energy    TOTEN  =      -354.56057930 eV

  energy without entropy =     -354.38250849  energy(sigma->0) =     -354.50122237


--------------------------------------------------------------------------------------------------------




--------------------------------------- Iteration      1(   6)  ---------------------------------------


    POTLOK:  cpu time    0.0190: real time    0.0190
    SETDIJ:  cpu time    0.0039: real time    0.0038
     EDDAV:  cpu time    6.3907: real time    6.4591
       DOS:  cpu time    0.0016: real time    0.0016
    CHARGE:  cpu time    0.0994: real time    0.0995
    MIXING:  cpu time    0.0035: real time    0.0044
    --------------------------------------------
      LOOP:  cpu time    6.5181: real time    6.5875

 eigenvalue-minimisations  :  4456
 total energy-change (2. order) : 0.1375895E+02  (-0.5839499E+01)
 number of electron     655.9999653 magnetization 
 augmentation part      271.2985427 magnetization 

 Broyden mixing:
  rms(total) = 0.31716E+01    rms(broyden)= 0.31710E+01
  rms(prec ) = 0.33765E+01
  weight for this iteration     100.00

 eigenvalues of (default mixing * dielectric matrix)
  average eigenvalue GAMMA=   0.9992
  0.9992

 Free energy of the ion-electron system (eV)
  ---------------------------------------------------
  alpha Z        PSCENC =      1184.06556306
  Ewald energy   TEWEN  =    164832.67770576
  -Hartree energ DENC   =   -219739.52463613
  -exchange      EXHF   =         0.00000000
  -V(xc)+E(xc)   XCENC  =     -1834.45729278
  PAW double counting   =     55747.93705861   -51844.83197361
  entropy T*S    EENTRO =        -0.27524729
  eigenvalues    EBANDS =     -1471.21513659
  atomic energy  EATOM  =     52784.82232594
  Solvation  Ediel_sol  =         0.00000000
  ---------------------------------------------------
  free energy    TOTEN  =      -340.80163304 eV

  energy without entropy =     -340.52638576  energy(sigma->0) =     -340.70988395


--------------------------------------------------------------------------------------------------------




--------------------------------------- Iteration      1(   7)  ---------------------------------------


    POTLOK:  cpu time    0.0319: real time    0.0319
    SETDIJ:  cpu time    0.0132: real time    0.0132
     EDDAV:  cpu time    7.3461: real time    7.3480
       DOS:  cpu time    0.0014: real time    0.0014
    CHARGE:  cpu time    0.0978: real time    0.0978
    MIXING:  cpu time    0.0007: real time    0.0007
    --------------------------------------------
      LOOP:  cpu time    7.4911: real time    7.4930

 eigenvalue-minimisations  :  4792
 total energy-change (2. order) :-0.1210493E+02  (-0.2413087E+01)
 number of electron     655.9999678 magnetization 
 augmentation part      268.6235525 magnetization 

 Broyden mixing:
  rms(total) = 0.35440E+01    rms(broyden)= 0.35432E+01
  rms(prec ) = 0.42931E+01
  weight for this iteration     100.00

 eigenvalues of (default mixing * dielectric matrix)
  average eigenvalue GAMMA=   0.9029
  1.4503  0.3555

 Free energy of the ion-electron system (eV)
  ---------------------------------------------------
  alpha Z        PSCENC =      1184.06556306
  Ewald energy   TEWEN  =    164832.67770576
  -Hartree energ DENC   =   -220016.47314169
  -exchange      EXHF   =         0.00000000
  -V(xc)+E(xc)   XCENC  =     -1836.70004423
  PAW double counting   =     57740.67267491   -53858.86530488
  entropy T*S    EENTRO =        -0.15078673
  eigenvalues    EBANDS =     -1182.95555509
  atomic energy  EATOM  =     52784.82232594
  Solvation  Ediel_sol  =         0.00000000
  ---------------------------------------------------
  free energy    TOTEN  =      -352.90656296 eV

  energy without entropy =     -352.75577623  energy(sigma->0) =     -352.85630071


--------------------------------------------------------------------------------------------------------




--------------------------------------- Iteration      1(   8)  ---------------------------------------


    POTLOK:  cpu time    0.0182: real time    0.0266
    SETDIJ:  cpu time    0.0037: real time    0.0037
     EDDAV:  cpu time    6.0362: real time    6.0434
       DOS:  cpu time    0.0015: real time    0.0015
    CHARGE:  cpu time    0.1009: real time    0.1009
    MIXING:  cpu time    0.0006: real time    0.0006
    --------------------------------------------
      LOOP:  cpu time    6.1612: real time    6.1768

 eigenvalue-minimisations  :  4248
 total energy-change (2. order) :-0.4528491E+01  (-0.4263426E+01)
 number of electron     655.9999650 magnetization 
 augmentation part      269.1885425 magnetization 

 Broyden mixing:
  rms(total) = 0.38767E+01    rms(broyden)= 0.38762E+01
  rms(prec ) = 0.46518E+01
  weight for this iteration     100.00

 eigenvalues of (default mixing * dielectric matrix)
  average eigenvalue GAMMA=   0.8129
  1.8080  0.4375  0.1932

 Free energy of the ion-electron system (eV)
  ---------------------------------------------------
  alpha Z        PSCENC =      1184.06556306
  Ewald energy   TEWEN  =    164832.67770576
  -Hartree energ DENC   =   -219864.33652424
  -exchange      EXHF   =         0.00000000
  -V(xc)+E(xc)   XCENC  =     -1836.41616348
  PAW double counting   =     58980.32722642   -55114.77905618
  entropy T*S    EENTRO =        -0.16665245
  eigenvalues    EBANDS =     -1323.62947897
  atomic energy  EATOM  =     52784.82232594
  Solvation  Ediel_sol  =         0.00000000
  ---------------------------------------------------
  free energy    TOTEN  =      -357.43505416 eV

  energy without entropy =     -357.26840170  energy(sigma->0) =     -357.37950334


--------------------------------------------------------------------------------------------------------




--------------------------------------- Iteration      1(   9)  ---------------------------------------


    POTLOK:  cpu time    0.0193: real time    0.0364
    SETDIJ:  cpu time    0.0040: real time    0.0040
     EDDAV:  cpu time    6.2510: real time    6.2524
       DOS:  cpu time    0.0015: real time    0.0015
    CHARGE:  cpu time    0.0990: real time    0.0990
    MIXING:  cpu time    0.0007: real time    0.0007
    --------------------------------------------
      LOOP:  cpu time    6.3755: real time    6.3940

 eigenvalue-minimisations  :  4472
 total energy-change (2. order) : 0.3649143E+01  (-0.2216380E+01)
 number of electron     655.9999715 magnetization 
 augmentation part      269.6347198 magnetization 

 Broyden mixing:
  rms(total) = 0.37826E+01    rms(broyden)= 0.37822E+01
  rms(prec ) = 0.54661E+01
  weight for this iteration     100.00

 eigenvalues of (default mixing * dielectric matrix)
  average eigenvalue GAMMA=   0.6698
  1.8795  0.4293  0.1851  0.1851

 Free energy of the ion-electron system (eV)
  ---------------------------------------------------
  alpha Z        PSCENC =      1184.06556306
  Ewald energy   TEWEN  =    164832.67770576
  -Hartree energ DENC   =   -219948.45585600
  -exchange      EXHF   =         0.00000000
  -V(xc)+E(xc)   XCENC  =     -1836.46427777
  PAW double counting   =     59960.36017529   -56107.97884961
  entropy T*S    EENTRO =        -0.14776455
  eigenvalues    EBANDS =     -1222.66493287
  atomic energy  EATOM  =     52784.82232594
  Solvation  Ediel_sol  =         0.00000000
  ---------------------------------------------------
  free energy    TOTEN  =      -353.78591075 eV

  energy without entropy =     -353.63814620  energy(sigma->0) =     -353.73665590


--------------------------------------------------------------------------------------------------------




--------------------------------------- Iteration      1(  10)  ---------------------------------------


    POTLOK:  cpu time    0.0180: real time    0.0180
    SETDIJ:  cpu time    0.0038: real time    0.0038
     EDDAV:  cpu time    5.9359: real time    5.9372
       DOS:  cpu time    0.0015: real time    0.0015
    CHARGE:  cpu time    0.0983: real time    0.0983
    MIXING:  cpu time    0.0012: real time    0.0012
    --------------------------------------------
      LOOP:  cpu time    6.0587: real time    6.0600

 eigenvalue-minimisations  :  4192
 total energy-change (2. order) : 0.7862539E+01  (-0.1082457E+01)
 number of electron     655.9999630 magnetization 
 augmentation part      269.7672503 magnetization 

 Broyden mixing:
  rms(total) = 0.27609E+01    rms(broyden)= 0.27603E+01
  rms(prec ) = 0.41351E+01
  weight for this iteration     100.00

 eigenvalues of (default mixing * dielectric matrix)
  average eigenvalue GAMMA=   0.6024
  1.9415  0.3784  0.3058  0.3058  0.0804

 Free energy of the ion-electron system (eV)
  ---------------------------------------------------
  alpha Z        PSCENC =      1184.06556306
  Ewald energy   TEWEN  =    164832.67770576
  -Hartree energ DENC   =   -219958.60260322
  -exchange      EXHF   =         0.00000000
  -V(xc)+E(xc)   XCENC  =     -1836.49163741
  PAW double counting   =     60221.24700509   -56372.16107603
  entropy T*S    EENTRO =        -0.19630937
  eigenvalues    EBANDS =     -1201.28434591
  atomic energy  EATOM  =     52784.82232594
  Solvation  Ediel_sol  =         0.00000000
  ---------------------------------------------------
  free energy    TOTEN  =      -345.92337211 eV

  energy without entropy =     -345.72706274  energy(sigma->0) =     -345.85793565


--------------------------------------------------------------------------------------------------------




--------------------------------------- Iteration      1(  11)  ---------------------------------------


    POTLOK:  cpu time    0.0178: real time    0.0178
    SETDIJ:  cpu time    0.0037: real time    0.0037
     EDDAV:  cpu time    5.9305: real time    5.9316
       DOS:  cpu time    0.0015: real time    0.0015
    CHARGE:  cpu time    0.0984: real time    0.0984
    MIXING:  cpu time    0.0010: real time    0.0010
    --------------------------------------------
      LOOP:  cpu time    6.0529: real time    6.0540

 eigenvalue-minimisations  :  4168
 total energy-change (2. order) : 0.5891253E+01  (-0.9022080E+00)
 number of electron     655.9999666 magnetization 
 augmentation part      270.2052507 magnetization 

 Broyden mixing:
  rms(total) = 0.20531E+01    rms(broyden)= 0.20527E+01
  rms(prec ) = 0.25904E+01
  weight for this iteration     100.00

 eigenvalues of (default mixing * dielectric matrix)
  average eigenvalue GAMMA=   0.6008
  2.0188  0.5345  0.5345  0.2804  0.1556  0.0806

 Free energy of the ion-electron system (eV)
  ---------------------------------------------------
  alpha Z        PSCENC =      1184.06556306
  Ewald energy   TEWEN  =    164832.67770576
  -Hartree energ DENC   =   -219949.35963125
  -exchange      EXHF   =         0.00000000
  -V(xc)+E(xc)   XCENC  =     -1836.39862053
  PAW double counting   =     60458.16196052   -56611.72877258
  entropy T*S    EENTRO =        -0.18337088
  eigenvalues    EBANDS =     -1202.08927872
  atomic energy  EATOM  =     52784.82232594
  Solvation  Ediel_sol  =         0.00000000
  ---------------------------------------------------
  free energy    TOTEN  =      -340.03211867 eV

  energy without entropy =     -339.84874779  energy(sigma->0) =     -339.97099504


--------------------------------------------------------------------------------------------------------




--------------------------------------- Iteration      1(  12)  ---------------------------------------


    POTLOK:  cpu time    0.0177: real time    0.0177
    SETDIJ:  cpu time    0.0038: real time    0.0038
     EDDAV:  cpu time    5.9394: real time    5.9411
       DOS:  cpu time    0.0015: real time    0.0015
    CHARGE:  cpu time    0.0995: real time    0.0995
    MIXING:  cpu time    0.0008: real time    0.0009
    --------------------------------------------
      LOOP:  cpu time    6.0626: real time    6.0643

 eigenvalue-minimisations  :  4200
 total energy-change (2. order) : 0.9818232E+00  (-0.1002186E+01)
 number of electron     655.9999666 magnetization 
 augmentation part      270.5512120 magnetization 

 Broyden mixing:
  rms(total) = 0.17002E+01    rms(broyden)= 0.16998E+01
  rms(prec ) = 0.20163E+01
  weight for this iteration     100.00

 eigenvalues of (default mixing * dielectric matrix)
  average eigenvalue GAMMA=   0.5723
  2.1213  0.5882  0.5882  0.2493  0.2493  0.1263  0.0833

 Free energy of the ion-electron system (eV)
  ---------------------------------------------------
  alpha Z        PSCENC =      1184.06556306
  Ewald energy   TEWEN  =    164832.67770576
  -Hartree energ DENC   =   -219923.90923277
  -exchange      EXHF   =         0.00000000
  -V(xc)+E(xc)   XCENC  =     -1836.13148803
  PAW double counting   =     60735.00084163   -56890.95340802
  entropy T*S    EENTRO =        -0.19732969
  eigenvalues    EBANDS =     -1224.42527333
  atomic energy  EATOM  =     52784.82232594
  Solvation  Ediel_sol  =         0.00000000
  ---------------------------------------------------
  free energy    TOTEN  =      -339.05029546 eV

  energy without entropy =     -338.85296577  energy(sigma->0) =     -338.98451890


--------------------------------------------------------------------------------------------------------




--------------------------------------- Iteration      1(  13)  ---------------------------------------


    POTLOK:  cpu time    0.0177: real time    0.0177
    SETDIJ:  cpu time    0.0037: real time    0.0037
     EDDAV:  cpu time    5.9332: real time    5.9408
       DOS:  cpu time    0.0015: real time    0.0015
    CHARGE:  cpu time    0.0986: real time    0.0986
    MIXING:  cpu time    0.0010: real time    0.0010
    --------------------------------------------
      LOOP:  cpu time    6.0557: real time    6.0634

 eigenvalue-minimisations  :  4160
 total energy-change (2. order) : 0.1952312E+01  (-0.4072562E+00)
 number of electron     655.9999680 magnetization 
 augmentation part      270.3176337 magnetization 

 Broyden mixing:
  rms(total) = 0.86182E+00    rms(broyden)= 0.86146E+00
  rms(prec ) = 0.11035E+01
  weight for this iteration     100.00

 eigenvalues of (default mixing * dielectric matrix)
  average eigenvalue GAMMA=   0.5715
  2.1880  0.7401  0.4322  0.4322  0.3586  0.1921  0.1471  0.0814

 Free energy of the ion-electron system (eV)
  ---------------------------------------------------
  alpha Z        PSCENC =      1184.06556306
  Ewald energy   TEWEN  =    164832.67770576
  -Hartree energ DENC   =   -219970.85847093
  -exchange      EXHF   =         0.00000000
  -V(xc)+E(xc)   XCENC  =     -1836.03028856
  PAW double counting   =     61010.92102147   -57169.23105315
  entropy T*S    EENTRO =        -0.33504277
  eigenvalues    EBANDS =     -1173.12974403
  atomic energy  EATOM  =     52784.82232594
  Solvation  Ediel_sol  =         0.00000000
  ---------------------------------------------------
  free energy    TOTEN  =      -337.09798322 eV

  energy without entropy =     -336.76294045  energy(sigma->0) =     -336.98630230


--------------------------------------------------------------------------------------------------------




--------------------------------------- Iteration      1(  14)  ---------------------------------------


    POTLOK:  cpu time    0.0172: real time    0.0172
    SETDIJ:  cpu time    0.0036: real time    0.0036
     EDDAV:  cpu time    5.9662: real time    5.9675
       DOS:  cpu time    0.0016: real time    0.0016
    CHARGE:  cpu time    0.0984: real time    0.0984
    MIXING:  cpu time    0.0011: real time    0.0011
    --------------------------------------------
      LOOP:  cpu time    6.0881: real time    6.0894

 eigenvalue-minimisations  :  4208
 total energy-change (2. order) :-0.6638305E-02  (-0.1723264E+00)
 number of electron     655.9999675 magnetization 
 augmentation part      270.4528565 magnetization 

 Broyden mixing:
  rms(total) = 0.90502E+00    rms(broyden)= 0.90485E+00
  rms(prec ) = 0.11211E+01
  weight for this iteration     100.00

 eigenvalues of (default mixing * dielectric matrix)
  average eigenvalue GAMMA=   0.5599
  2.2266  0.7591  0.5769  0.5769  0.2748  0.2480  0.0816  0.1476  0.1476

 Free energy of the ion-electron system (eV)
  ---------------------------------------------------
  alpha Z        PSCENC =      1184.06556306
  Ewald energy   TEWEN  =    164832.67770576
  -Hartree energ DENC   =   -219967.64057244
  -exchange      EXHF   =         0.00000000
  -V(xc)+E(xc)   XCENC  =     -1835.97148635
  PAW double counting   =     61137.30590951   -57296.83457014
  entropy T*S    EENTRO =        -0.28237558
  eigenvalues    EBANDS =     -1175.24712129
  atomic energy  EATOM  =     52784.82232594
  Solvation  Ediel_sol  =         0.00000000
  ---------------------------------------------------
  free energy    TOTEN  =      -337.10462153 eV

  energy without entropy =     -336.82224595  energy(sigma->0) =     -337.01049634


--------------------------------------------------------------------------------------------------------




--------------------------------------- Iteration      1(  15)  ---------------------------------------


    POTLOK:  cpu time    0.0188: real time    0.0234
    SETDIJ:  cpu time    0.0040: real time    0.0040
     EDDAV:  cpu time    5.9609: real time    5.9623
       DOS:  cpu time    0.0015: real time    0.0015
    CHARGE:  cpu time    0.0973: real time    0.0973
    MIXING:  cpu time    0.0014: real time    0.0014
    --------------------------------------------
      LOOP:  cpu time    6.0840: real time    6.0900

 eigenvalue-minimisations  :  4216
 total energy-change (2. order) : 0.2816085E+00  (-0.1222514E+00)
 number of electron     655.9999672 magnetization 
 augmentation part      270.4062019 magnetization 

 Broyden mixing:
  rms(total) = 0.57745E+00    rms(broyden)= 0.57731E+00
  rms(prec ) = 0.70174E+00
  weight for this iteration     100.00

 eigenvalues of (default mixing * dielectric matrix)
  average eigenvalue GAMMA=   0.5475
  2.2431  0.7002  0.7002  0.7095  0.2930  0.2930  0.0815  0.1613  0.1613  0.1316

 Free energy of the ion-electron system (eV)
  ---------------------------------------------------
  alpha Z        PSCENC =      1184.06556306
  Ewald energy   TEWEN  =    164832.67770576
  -Hartree energ DENC   =   -219970.31000080
  -exchange      EXHF   =         0.00000000
  -V(xc)+E(xc)   XCENC  =     -1835.97966719
  PAW double counting   =     61200.68280388   -57360.87049091
  entropy T*S    EENTRO =        -0.32793794
  eigenvalues    EBANDS =     -1171.58331478
  atomic energy  EATOM  =     52784.82232594
  Solvation  Ediel_sol  =         0.00000000
  ---------------------------------------------------
  free energy    TOTEN  =      -336.82301298 eV

  energy without entropy =     -336.49507504  energy(sigma->0) =     -336.71370033


--------------------------------------------------------------------------------------------------------




--------------------------------------- Iteration      1(  16)  ---------------------------------------


    POTLOK:  cpu time    0.0177: real time    0.0177
    SETDIJ:  cpu time    0.0037: real time    0.0037
     EDDAV:  cpu time    5.9792: real time    5.9811
       DOS:  cpu time    0.0015: real time    0.0015
    CHARGE:  cpu time    0.0997: real time    0.0997
    MIXING:  cpu time    0.0013: real time    0.0013
    --------------------------------------------
      LOOP:  cpu time    6.1031: real time    6.1049

 eigenvalue-minimisations  :  4216
 total energy-change (2. order) : 0.1255802E+00  (-0.4054675E-01)
 number of electron     655.9999670 magnetization 
 augmentation part      270.3599770 magnetization 

 Broyden mixing:
  rms(total) = 0.43504E+00    rms(broyden)= 0.43498E+00
  rms(prec ) = 0.53883E+00
  weight for this iteration     100.00

 eigenvalues of (default mixing * dielectric matrix)
  average eigenvalue GAMMA=   0.5665
  2.2437  0.9713  0.9713  0.5381  0.3751  0.3751  0.2037  0.2037  0.0815  0.1338
  0.1338

 Free energy of the ion-electron system (eV)
  ---------------------------------------------------
  alpha Z        PSCENC =      1184.06556306
  Ewald energy   TEWEN  =    164832.67770576
  -Hartree energ DENC   =   -219975.29196815
  -exchange      EXHF   =         0.00000000
  -V(xc)+E(xc)   XCENC  =     -1835.97389886
  PAW double counting   =     61223.08246088   -57383.41257095
  entropy T*S    EENTRO =        -0.34489734
  eigenvalues    EBANDS =     -1166.32215306
  atomic energy  EATOM  =     52784.82232594
  Solvation  Ediel_sol  =         0.00000000
  ---------------------------------------------------
  free energy    TOTEN  =      -336.69743273 eV

  energy without entropy =     -336.35253539  energy(sigma->0) =     -336.58246695


--------------------------------------------------------------------------------------------------------




--------------------------------------- Iteration      1(  17)  ---------------------------------------


    POTLOK:  cpu time    0.0177: real time    0.0177
    SETDIJ:  cpu time    0.0038: real time    0.0038
     EDDAV:  cpu time    5.9200: real time    5.9210
       DOS:  cpu time    0.0015: real time    0.0015
    CHARGE:  cpu time    0.0980: real time    0.0979
    MIXING:  cpu time    0.0012: real time    0.0012
    --------------------------------------------
      LOOP:  cpu time    6.0422: real time    6.0432

 eigenvalue-minimisations  :  4168
 total energy-change (2. order) : 0.4803471E-01  (-0.2309267E-01)
 number of electron     655.9999669 magnetization 
 augmentation part      270.2855019 magnetization 

 Broyden mixing:
  rms(total) = 0.40123E+00    rms(broyden)= 0.40119E+00
  rms(prec ) = 0.51734E+00
  weight for this iteration     100.00

 eigenvalues of (default mixing * dielectric matrix)
  average eigenvalue GAMMA=   0.5733
  2.2324  1.1972  1.1972  0.4494  0.4494  0.3710  0.2366  0.2366  0.0815  0.1516
  0.1516  0.1252

 Free energy of the ion-electron system (eV)
  ---------------------------------------------------
  alpha Z        PSCENC =      1184.06556306
  Ewald energy   TEWEN  =    164832.67770576
  -Hartree energ DENC   =   -219987.13969025
  -exchange      EXHF   =         0.00000000
  -V(xc)+E(xc)   XCENC  =     -1835.93510762
  PAW double counting   =     61219.44866794   -57379.63733675
  entropy T*S    EENTRO =        -0.36018256
  eigenvalues    EBANDS =     -1154.59134352
  atomic energy  EATOM  =     52784.82232594
  Solvation  Ediel_sol  =         0.00000000
  ---------------------------------------------------
  free energy    TOTEN  =      -336.64939802 eV

  energy without entropy =     -336.28921546  energy(sigma->0) =     -336.52933717


--------------------------------------------------------------------------------------------------------




--------------------------------------- Iteration      1(  18)  ---------------------------------------


    POTLOK:  cpu time    0.0176: real time    0.0268
    SETDIJ:  cpu time    0.0038: real time    0.0038
     EDDAV:  cpu time    6.0153: real time    6.0234
       DOS:  cpu time    0.0015: real time    0.0015
    CHARGE:  cpu time    0.0995: real time    0.0996
    MIXING:  cpu time    0.0011: real time    0.0011
    --------------------------------------------
      LOOP:  cpu time    6.1389: real time    6.1562

 eigenvalue-minimisations  :  4256
 total energy-change (2. order) : 0.6613899E-01  (-0.1541818E-01)
 number of electron     655.9999669 magnetization 
 augmentation part      270.2175165 magnetization 

 Broyden mixing:
  rms(total) = 0.28016E+00    rms(broyden)= 0.28011E+00
  rms(prec ) = 0.38506E+00
  weight for this iteration     100.00

 eigenvalues of (default mixing * dielectric matrix)
  average eigenvalue GAMMA=   0.5700
  2.2324  1.2873  1.2873  0.4677  0.4677  0.3609  0.3609  0.2512  0.0815  0.1753
  0.1729  0.1351  0.1302

 Free energy of the ion-electron system (eV)
  ---------------------------------------------------
  alpha Z        PSCENC =      1184.06556306
  Ewald energy   TEWEN  =    164832.67770576
  -Hartree energ DENC   =   -220000.14691070
  -exchange      EXHF   =         0.00000000
  -V(xc)+E(xc)   XCENC  =     -1835.89314595
  PAW double counting   =     61209.41546463   -57369.47124740
  entropy T*S    EENTRO =        -0.38518028
  eigenvalues    EBANDS =     -1141.66783407
  atomic energy  EATOM  =     52784.82232594
  Solvation  Ediel_sol  =         0.00000000
  ---------------------------------------------------
  free energy    TOTEN  =      -336.58325903 eV

  energy without entropy =     -336.19807875  energy(sigma->0) =     -336.45486560


--------------------------------------------------------------------------------------------------------




--------------------------------------- Iteration      1(  19)  ---------------------------------------


    POTLOK:  cpu time    0.0210: real time    0.0358
    SETDIJ:  cpu time    0.0037: real time    0.0037
     EDDAV:  cpu time    5.9439: real time    5.9451
       DOS:  cpu time    0.0014: real time    0.0014
    CHARGE:  cpu time    0.0994: real time    0.0993
    MIXING:  cpu time    0.0013: real time    0.0013
    --------------------------------------------
      LOOP:  cpu time    6.0706: real time    6.0866

 eigenvalue-minimisations  :  4192
 total energy-change (2. order) : 0.3246361E-01  (-0.8210381E-02)
 number of electron     655.9999670 magnetization 
 augmentation part      270.2313022 magnetization 

 Broyden mixing:
  rms(total) = 0.21871E+00    rms(broyden)= 0.21869E+00
  rms(prec ) = 0.29773E+00
  weight for this iteration     100.00

 eigenvalues of (default mixing * dielectric matrix)
  average eigenvalue GAMMA=   0.5857
  2.2590  1.4079  1.4079  0.5706  0.5706  0.4110  0.4110  0.2747  0.0815  0.1982
  0.1982  0.1420  0.1420  0.1249

 Free energy of the ion-electron system (eV)
  ---------------------------------------------------
  alpha Z        PSCENC =      1184.06556306
  Ewald energy   TEWEN  =    164832.67770576
  -Hartree energ DENC   =   -220005.66667480
  -exchange      EXHF   =         0.00000000
  -V(xc)+E(xc)   XCENC  =     -1835.85863048
  PAW double counting   =     61207.24217303   -57367.32284998
  entropy T*S    EENTRO =        -0.38425835
  eigenvalues    EBANDS =     -1136.12614958
  atomic energy  EATOM  =     52784.82232594
  Solvation  Ediel_sol  =         0.00000000
  ---------------------------------------------------
  free energy    TOTEN  =      -336.55079541 eV

  energy without entropy =     -336.16653706  energy(sigma->0) =     -336.42270930


--------------------------------------------------------------------------------------------------------




--------------------------------------- Iteration      1(  20)  ---------------------------------------


    POTLOK:  cpu time    0.0179: real time    0.0179
    SETDIJ:  cpu time    0.0037: real time    0.0037
     EDDAV:  cpu time    6.2184: real time    6.2196
       DOS:  cpu time    0.0016: real time    0.0016
    CHARGE:  cpu time    0.1021: real time    0.1021
    MIXING:  cpu time    0.0015: real time    0.0015
    --------------------------------------------
      LOOP:  cpu time    6.3452: real time    6.3463

 eigenvalue-minimisations  :  4464
 total energy-change (2. order) : 0.1633377E-01  (-0.7603564E-02)
 number of electron     655.9999671 magnetization 
 augmentation part      270.2690544 magnetization 

 Broyden mixing:
  rms(total) = 0.17511E+00    rms(broyden)= 0.17507E+00
  rms(prec ) = 0.21815E+00
  weight for this iteration     100.00

 eigenvalues of (default mixing * dielectric matrix)
  average eigenvalue GAMMA=   0.5916
  2.2775  1.9118  1.1999  0.6154  0.6154  0.4517  0.3598  0.3598  0.2155  0.2155
  0.0815  0.1724  0.1412  0.1315  0.1254

 Free energy of the ion-electron system (eV)
  ---------------------------------------------------
  alpha Z        PSCENC =      1184.06556306
  Ewald energy   TEWEN  =    164832.67770576
  -Hartree energ DENC   =   -220012.81996273
  -exchange      EXHF   =         0.00000000
  -V(xc)+E(xc)   XCENC  =     -1835.80521057
  PAW double counting   =     61208.95185810   -57369.15864469
  entropy T*S    EENTRO =        -0.37061241
  eigenvalues    EBANDS =     -1128.89748409
  atomic energy  EATOM  =     52784.82232594
  Solvation  Ediel_sol  =         0.00000000
  ---------------------------------------------------
  free energy    TOTEN  =      -336.53446164 eV

  energy without entropy =     -336.16384923  energy(sigma->0) =     -336.41092417


--------------------------------------------------------------------------------------------------------




--------------------------------------- Iteration      1(  21)  ---------------------------------------


    POTLOK:  cpu time    0.0187: real time    0.0187
    SETDIJ:  cpu time    0.0037: real time    0.0037
     EDDAV:  cpu time    5.8647: real time    5.8663
       DOS:  cpu time    0.0015: real time    0.0015
    CHARGE:  cpu time    0.1000: real time    0.1000
    MIXING:  cpu time    0.0012: real time    0.0012
    --------------------------------------------
      LOOP:  cpu time    5.9897: real time    5.9913

 eigenvalue-minimisations  :  4120
 total energy-change (2. order) : 0.1665559E-01  (-0.4617019E-02)
 number of electron     655.9999672 magnetization 
 augmentation part      270.2697819 magnetization 

 Broyden mixing:
  rms(total) = 0.91838E-01    rms(broyden)= 0.91808E-01
  rms(prec ) = 0.11322E+00
  weight for this iteration     100.00

 eigenvalues of (default mixing * dielectric matrix)
  average eigenvalue GAMMA=   0.5866
  2.2950  2.0337  1.1692  0.6540  0.6540  0.4769  0.4006  0.4006  0.2364  0.2364
  0.0815  0.1906  0.1594  0.1393  0.1344  0.1235

 Free energy of the ion-electron system (eV)
  ---------------------------------------------------
  alpha Z        PSCENC =      1184.06556306
  Ewald energy   TEWEN  =    164832.67770576
  -Hartree energ DENC   =   -220019.62588420
  -exchange      EXHF   =         0.00000000
  -V(xc)+E(xc)   XCENC  =     -1835.76894690
  PAW double counting   =     61206.41035723   -57366.64457018
  entropy T*S    EENTRO =        -0.37261116
  eigenvalues    EBANDS =     -1122.08174559
  atomic energy  EATOM  =     52784.82232594
  Solvation  Ediel_sol  =         0.00000000
  ---------------------------------------------------
  free energy    TOTEN  =      -336.51780606 eV

  energy without entropy =     -336.14519490  energy(sigma->0) =     -336.39360234


[...]
      2.786228  3.217259  9.774946            0           0           0  
      5.572456  3.217259  9.774946            0           0           0  
      8.358684  3.217259  9.774946            0           0           0  
     11.144912  3.217259  9.774946            0           0           0  
      4.179342  5.630203  9.774946            0           0           0  
      6.965570  5.630203  9.774946            0           0           0  
      9.751798  5.630203  9.774946            0           0           0  
     12.538026  5.630203  9.774946            0           0           0  
      5.572456  8.043147  9.774946            0           0           0  
      8.358684  8.043147  9.774946            0           0           0  
     11.144912  8.043147  9.774946            0           0           0  
     13.931140  8.043147  9.774946            0           0           0  
     11.144912  1.608629 12.071933            0           0           0  
      2.786228  1.608629 12.071933            0           0           0  
      5.572456  1.608629 12.071933            0           0           0  
      8.358684  1.608629 12.071933            0           0           0  
     12.538026  4.021574 12.071933            0           0           0  
      4.179342  4.021574 12.071933            0           0           0  
      6.965570  4.021574 12.071933            0           0           0  
      9.751798  4.021574 12.071933            0           0           0  
     13.931140  6.434518 12.071933            0           0           0  
      5.572456  6.434518 12.071933            0           0           0  
      8.358684  6.434518 12.071933            0           0           0  
     11.144912  6.434518 12.071933            0           0           0  
     15.324254  8.847462 12.071933            0           0           0  
      6.965570  8.847462 12.071933            0           0           0  
      9.751798  8.847462 12.071933            0           0           0  
     12.538026  8.847462 12.071933            0           0           0  
      0.000000  0.000000 14.391125            0           0           0  
      2.786228  0.000000 14.391125            0           0           0  
      5.572456  0.000000 14.391125            0           0           0  
      8.358684  0.000000 14.391125            0           0           0  
      1.393114  2.412944 14.391125            0           0           0  
      4.179342  2.412944 14.391125            0           0           0  
      6.965570  2.412944 14.391125            0           0           0  
      9.751798  2.412944 14.391125            0           0           0  
      2.786228  4.825888 14.391125            0           0           0  
      5.572456  4.825888 14.391125            0           0           0  
      8.358684  4.825888 14.391125            0           0           0  
     11.144912  4.825888 14.391125            0           0           0  
      4.179342  7.238833 14.391125            0           0           0  
      6.965570  7.238833 14.391125            0           0           0  
      9.751798  7.238833 14.391125            0           0           0  
     12.538026  7.238833 14.391125            0           0           0  
      2.764154  0.037871 16.428175    -0.407316   -0.617451    0.003237  
      1.822718  0.413737 17.027889    -0.337791   -0.291551   -0.075689  
     11.730604  1.021078 16.197725     0.164685    0.448642   -0.140014  
 
   7 f  =    3.266313 THz    20.522848 2PiTHz  108.952461 cm-1    13.508388 meV
             X         Y         Z           dx          dy          dz
      0.000000  0.000000  7.500000            0           0           0  
      2.786228  0.000000  7.500000            0           0           0  
      5.572456  0.000000  7.500000            0           0           0  
      8.358684  0.000000  7.500000            0           0           0  
      1.393114  2.412944  7.500000            0           0           0  
      4.179342  2.412944  7.500000            0           0           0  
      6.965570  2.412944  7.500000            0           0           0  
      9.751798  2.412944  7.500000            0           0           0  
      2.786228  4.825888  7.500000            0           0           0  
      5.572456  4.825888  7.500000            0           0           0  
      8.358684  4.825888  7.500000            0           0           0  
     11.144912  4.825888  7.500000            0           0           0  
      4.179342  7.238833  7.500000            0           0           0  
      6.965570  7.238833  7.500000            0           0           0  
      9.751798  7.238833  7.500000            0           0           0  
     12.538026  7.238833  7.500000            0           0           0  
      1.393114  0.804315  9.774946            0           0           0  
      4.179342  0.804315  9.774946            0           0           0  
      6.965570  0.804315  9.774946            0           0           0  
      9.751798  0.804315  9.774946            0           0           0  
      2.786228  3.217259  9.774946            0           0           0  
      5.572456  3.217259  9.774946            0           0           0  
      8.358684  3.217259  9.774946            0           0           0  
     11.144912  3.217259  9.774946            0           0           0  
      4.179342  5.630203  9.774946            0           0           0  
      6.965570  5.630203  9.774946            0           0           0  
      9.751798  5.630203  9.774946            0           0           0  
     12.538026  5.630203  9.774946            0           0           0  
      5.572456  8.043147  9.774946            0           0           0  
      8.358684  8.043147  9.774946            0           0           0  
     11.144912  8.043147  9.774946            0           0           0  
     13.931140  8.043147  9.774946            0           0           0  
     11.144912  1.608629 12.071933            0           0           0  
      2.786228  1.608629 12.071933            0           0           0  
      5.572456  1.608629 12.071933            0           0           0  
      8.358684  1.608629 12.071933            0           0           0  
     12.538026  4.021574 12.071933            0           0           0  
      4.179342  4.021574 12.071933            0           0           0  
      6.965570  4.021574 12.071933            0           0           0  
      9.751798  4.021574 12.071933            0           0           0  
     13.931140  6.434518 12.071933            0           0           0  
      5.572456  6.434518 12.071933            0           0           0  
      8.358684  6.434518 12.071933            0           0           0  
     11.144912  6.434518 12.071933            0           0           0  
     15.324254  8.847462 12.071933            0           0           0  
      6.965570  8.847462 12.071933            0           0           0  
      9.751798  8.847462 12.071933            0           0           0  
     12.538026  8.847462 12.071933            0           0           0  
      0.000000  0.000000 14.391125            0           0           0  
      2.786228  0.000000 14.391125            0           0           0  
      5.572456  0.000000 14.391125            0           0           0  
      8.358684  0.000000 14.391125            0           0           0  
      1.393114  2.412944 14.391125            0           0           0  
      4.179342  2.412944 14.391125            0           0           0  
      6.965570  2.412944 14.391125            0           0           0  
      9.751798  2.412944 14.391125            0           0           0  
      2.786228  4.825888 14.391125            0           0           0  
      5.572456  4.825888 14.391125            0           0           0  
      8.358684  4.825888 14.391125            0           0           0  
     11.144912  4.825888 14.391125            0           0           0  
      4.179342  7.238833 14.391125            0           0           0  
      6.965570  7.238833 14.391125            0           0           0  
      9.751798  7.238833 14.391125            0           0           0  
     12.538026  7.238833 14.391125            0           0           0  
      2.764154  0.037871 16.428175     0.433548   -0.369135   -0.001665  
      1.822718  0.413737 17.027889     0.462573   -0.342578    0.031284  
     11.730604  1.021078 16.197725     0.557643   -0.175982    0.039047  
 
   8 f/i=    0.357185 THz     2.244261 2PiTHz   11.914417 cm-1     1.477200 meV
             X         Y         Z           dx          dy          dz
      0.000000  0.000000  7.500000            0           0           0  
      2.786228  0.000000  7.500000            0           0           0  
      5.572456  0.000000  7.500000            0           0           0  
      8.358684  0.000000  7.500000            0           0           0  
      1.393114  2.412944  7.500000            0           0           0  
      4.179342  2.412944  7.500000            0           0           0  
      6.965570  2.412944  7.500000            0           0           0  
      9.751798  2.412944  7.500000            0           0           0  
      2.786228  4.825888  7.500000            0           0           0  
      5.572456  4.825888  7.500000            0           0           0  
      8.358684  4.825888  7.500000            0           0           0  
     11.144912  4.825888  7.500000            0           0           0  
      4.179342  7.238833  7.500000            0           0           0  
      6.965570  7.238833  7.500000            0           0           0  
      9.751798  7.238833  7.500000            0           0           0  
     12.538026  7.238833  7.500000            0           0           0  
      1.393114  0.804315  9.774946            0           0           0  
      4.179342  0.804315  9.774946            0           0           0  
      6.965570  0.804315  9.774946            0           0           0  
      9.751798  0.804315  9.774946            0           0           0  
      2.786228  3.217259  9.774946            0           0           0  
      5.572456  3.217259  9.774946            0           0           0  
      8.358684  3.217259  9.774946            0           0           0  
     11.144912  3.217259  9.774946            0           0           0  
      4.179342  5.630203  9.774946            0           0           0  
      6.965570  5.630203  9.774946            0           0           0  
      9.751798  5.630203  9.774946            0           0           0  
     12.538026  5.630203  9.774946            0           0           0  
      5.572456  8.043147  9.774946            0           0           0  
      8.358684  8.043147  9.774946            0           0           0  
     11.144912  8.043147  9.774946            0           0           0  
     13.931140  8.043147  9.774946            0           0           0  
     11.144912  1.608629 12.071933            0           0           0  
      2.786228  1.608629 12.071933            0           0           0  
      5.572456  1.608629 12.071933            0           0           0  
      8.358684  1.608629 12.071933            0           0           0  
     12.538026  4.021574 12.071933            0           0           0  
      4.179342  4.021574 12.071933            0           0           0  
      6.965570  4.021574 12.071933            0           0           0  
      9.751798  4.021574 12.071933            0           0           0  
     13.931140  6.434518 12.071933            0           0           0  
      5.572456  6.434518 12.071933            0           0           0  
      8.358684  6.434518 12.071933            0           0           0  
     11.144912  6.434518 12.071933            0           0           0  
     15.324254  8.847462 12.071933            0           0           0  
      6.965570  8.847462 12.071933            0           0           0  
      9.751798  8.847462 12.071933            0           0           0  
     12.538026  8.847462 12.071933            0           0           0  
      0.000000  0.000000 14.391125            0           0           0  
      2.786228  0.000000 14.391125            0           0           0  
      5.572456  0.000000 14.391125            0           0           0  
      8.358684  0.000000 14.391125            0           0           0  
      1.393114  2.412944 14.391125            0           0           0  
      4.179342  2.412944 14.391125            0           0           0  
      6.965570  2.412944 14.391125            0           0           0  
      9.751798  2.412944 14.391125            0           0           0  
      2.786228  4.825888 14.391125            0           0           0  
      5.572456  4.825888 14.391125            0           0           0  
      8.358684  4.825888 14.391125            0           0           0  
     11.144912  4.825888 14.391125            0           0           0  
      4.179342  7.238833 14.391125            0           0           0  
      6.965570  7.238833 14.391125            0           0           0  
      9.751798  7.238833 14.391125            0           0           0  
     12.538026  7.238833 14.391125            0           0           0  
      2.764154  0.037871 16.428175    -0.114492   -0.192469    0.001376  
      1.822718  0.413737 17.027889    -0.195010   -0.533027    0.069744  
     11.730604  1.021078 16.197725    -0.423301   -0.651136    0.140262  
 
   9 f/i=   16.513405 THz   103.756781 2PiTHz  550.827867 cm-1    68.293976 meV
             X         Y         Z           dx          dy          dz
      0.000000  0.000000  7.500000            0           0           0  
      2.786228  0.000000  7.500000            0           0           0  
      5.572456  0.000000  7.500000            0           0           0  
      8.358684  0.000000  7.500000            0           0           0  
      1.393114  2.412944  7.500000            0           0           0  
      4.179342  2.412944  7.500000            0           0           0  
      6.965570  2.412944  7.500000            0           0           0  
      9.751798  2.412944  7.500000            0           0           0  
      2.786228  4.825888  7.500000            0           0           0  
      5.572456  4.825888  7.500000            0           0           0  
      8.358684  4.825888  7.500000            0           0           0  
     11.144912  4.825888  7.500000            0           0           0  
      4.179342  7.238833  7.500000            0           0           0  
      6.965570  7.238833  7.500000            0           0           0  
      9.751798  7.238833  7.500000            0           0           0  
     12.538026  7.238833  7.500000            0           0           0  
      1.393114  0.804315  9.774946            0           0           0  
      4.179342  0.804315  9.774946            0           0           0  
      6.965570  0.804315  9.774946            0           0           0  
      9.751798  0.804315  9.774946            0           0           0  
      2.786228  3.217259  9.774946            0           0           0  
      5.572456  3.217259  9.774946            0           0           0  
      8.358684  3.217259  9.774946            0           0           0  
     11.144912  3.217259  9.774946            0           0           0  
      4.179342  5.630203  9.774946            0           0           0  
      6.965570  5.630203  9.774946            0           0           0  
      9.751798  5.630203  9.774946            0           0           0  
     12.538026  5.630203  9.774946            0           0           0  
      5.572456  8.043147  9.774946            0           0           0  
      8.358684  8.043147  9.774946            0           0           0  
     11.144912  8.043147  9.774946            0           0           0  
     13.931140  8.043147  9.774946            0           0           0  
     11.144912  1.608629 12.071933            0           0           0  
      2.786228  1.608629 12.071933            0           0           0  
      5.572456  1.608629 12.071933            0           0           0  
      8.358684  1.608629 12.071933            0           0           0  
     12.538026  4.021574 12.071933            0           0           0  
      4.179342  4.021574 12.071933            0           0           0  
      6.965570  4.021574 12.071933            0           0           0  
      9.751798  4.021574 12.071933            0           0           0  
     13.931140  6.434518 12.071933            0           0           0  
      5.572456  6.434518 12.071933            0           0           0  
      8.358684  6.434518 12.071933            0           0           0  
     11.144912  6.434518 12.071933            0           0           0  
     15.324254  8.847462 12.071933            0           0           0  
      6.965570  8.847462 12.071933            0           0           0  
      9.751798  8.847462 12.071933            0           0           0  
     12.538026  8.847462 12.071933            0           0           0  
      0.000000  0.000000 14.391125            0           0           0  
      2.786228  0.000000 14.391125            0           0           0  
      5.572456  0.000000 14.391125            0           0           0  
      8.358684  0.000000 14.391125            0           0           0  
      1.393114  2.412944 14.391125            0           0           0  
      4.179342  2.412944 14.391125            0           0           0  
      6.965570  2.412944 14.391125            0           0           0  
      9.751798  2.412944 14.391125            0           0           0  
      2.786228  4.825888 14.391125            0           0           0  
      5.572456  4.825888 14.391125            0           0           0  
      8.358684  4.825888 14.391125            0           0           0  
     11.144912  4.825888 14.391125            0           0           0  
      4.179342  7.238833 14.391125            0           0           0  
      6.965570  7.238833 14.391125            0           0           0  
      9.751798  7.238833 14.391125            0           0           0  
     12.538026  7.238833 14.391125            0           0           0  
      2.764154  0.037871 16.428175    -0.063214    0.014455   -0.024627  
      1.822718  0.413737 17.027889    -0.417745    0.220807   -0.388714  
     11.730604  1.021078 16.197725     0.442129   -0.247979    0.603201  
 
 Finite differences POTIM=  2.000000000000000E-003
     LOOP+:  cpu time   79.4836: real time   79.5761
    4ORBIT:  cpu time    0.0004: real time    0.0018

 total amount of memory used by VASP MPI-rank0    53833. kBytes
=======================================================================

   base      :      30000. kBytes
   nonl-proj :       8635. kBytes
   fftplans  :       1583. kBytes
   grid      :       2530. kBytes
   one-center:         77. kBytes
   wavefun   :      11008. kBytes
 
  
  
 General timing and accounting informations for this job:
 ========================================================
  
                  Total CPU time used (sec):     1718.712
                            User time (sec):     1695.025
                          System time (sec):       23.687
                         Elapsed time (sec):     1722.918
  
                   Maximum memory used (kb):      153492.
                   Average memory used (kb):           0.
  
                          Minor page faults:        27280
                          Major page faults:           57
                 Voluntary context switches:         2054
