 running on  128 total cores
 distrk:  each k-point on  128 cores,    1 groups
 distr:  one band on   16 cores,    8 groups
 using from now: INCAR     
 vasp.5.4.4.18Apr17-6-g9f103f2a35 (build Aug 16 2021 22:57:11) complex          
  
 POSCAR found type information on POSCAR  Pd N  O 
 POSCAR found :  3 types and      67 ions
 scaLAPACK will be used

 ----------------------------------------------------------------------------- 
|                                                                             |
|  ADVICE TO THIS USER RUNNING 'VASP/VAMP'   (HEAR YOUR MASTER'S VOICE ...):  |
|                                                                             |
|      You have a (more or less) 'large supercell' and for larger cells       |
|      it might be more efficient to use real space projection opertators     |
|      So try LREAL= Auto  in the INCAR   file.                               |
|      Mind:          For very  accurate calculation you might also keep the  |
|      reciprocal projection scheme          (i.e. LREAL=.FALSE.)             |
|                                                                             |
 ----------------------------------------------------------------------------- 

 LDA part: xc-table for Pade appr. of Perdew
 POSCAR found type information on POSCAR  Pd N  O 
 POSCAR found :  3 types and      67 ions
 POSCAR, INCAR and KPOINTS ok, starting setup
 FFT: planning ...
 WAVECAR not read
 entering main loop
       N       E                     dE             d eps       ncg     rms          rms(c)
DAV:   1     0.381664190422E+04    0.38166E+04   -0.26675E+05  4072   0.117E+03
DAV:   2    -0.121094988681E+03   -0.39377E+04   -0.36829E+04  4456   0.285E+02
DAV:   3    -0.345782559817E+03   -0.22469E+03   -0.19966E+03  4488   0.612E+01
DAV:   4    -0.354234872284E+03   -0.84523E+01   -0.81343E+01  4688   0.117E+01
DAV:   5    -0.354560579302E+03   -0.32571E+00   -0.32269E+00  5776   0.230E+00    0.502E+01
DAV:   6    -0.340801633044E+03    0.13759E+02   -0.58395E+01  4456   0.178E+01    0.317E+01
DAV:   7    -0.352906562957E+03   -0.12105E+02   -0.24131E+01  4792   0.200E+01    0.354E+01
DAV:   8    -0.357435054156E+03   -0.45285E+01   -0.42634E+01  4248   0.316E+01    0.388E+01
DAV:   9    -0.353785910749E+03    0.36491E+01   -0.22164E+01  4472   0.211E+01    0.378E+01
DAV:  10    -0.345923372107E+03    0.78625E+01   -0.10825E+01  4192   0.194E+01    0.276E+01
DAV:  11    -0.340032118670E+03    0.58913E+01   -0.90221E+00  4168   0.135E+01    0.205E+01
DAV:  12    -0.339050295460E+03    0.98182E+00   -0.10022E+01  4200   0.126E+01    0.170E+01
DAV:  13    -0.337097983224E+03    0.19523E+01   -0.40726E+00  4160   0.831E+00    0.862E+00
DAV:  14    -0.337104621529E+03   -0.66383E-02   -0.17233E+00  4208   0.528E+00    0.905E+00
DAV:  15    -0.336823012980E+03    0.28161E+00   -0.12225E+00  4216   0.405E+00    0.577E+00
DAV:  16    -0.336697432734E+03    0.12558E+00   -0.40547E-01  4216   0.248E+00    0.435E+00
DAV:  17    -0.336649398020E+03    0.48035E-01   -0.23093E-01  4168   0.183E+00    0.401E+00
DAV:  18    -0.336583259029E+03    0.66139E-01   -0.15418E-01  4256   0.152E+00    0.280E+00
DAV:  19    -0.336550795415E+03    0.32464E-01   -0.82104E-02  4192   0.114E+00    0.219E+00
DAV:  20    -0.336534461645E+03    0.16334E-01   -0.76036E-02  4464   0.105E+00    0.175E+00
DAV:  21    -0.336517806057E+03    0.16656E-01   -0.46170E-02  4120   0.839E-01    0.918E-01
DAV:  22    -0.336514225342E+03    0.35807E-02   -0.12398E-02  4128   0.421E-01    0.608E-01
DAV:  23    -0.336513955670E+03    0.26967E-03   -0.63818E-03  4136   0.323E-01    0.586E-01
DAV:  24    -0.336513162398E+03    0.79327E-03   -0.40820E-03  4200   0.257E-01    0.447E-01
DAV:  25    -0.336513230081E+03   -0.67683E-04   -0.26702E-03  4128   0.209E-01    0.393E-01
DAV:  26    -0.336512546726E+03    0.68335E-03   -0.17273E-03  4216   0.172E-01    0.195E-01
DAV:  27    -0.336512658490E+03   -0.11176E-03   -0.80673E-04  4256   0.103E-01    0.141E-01
DAV:  28    -0.336512971431E+03   -0.31294E-03   -0.46431E-04  4096   0.795E-02    0.138E-01
DAV:  29    -0.336513229858E+03   -0.25843E-03   -0.34554E-04  4136   0.684E-02    0.945E-02
DAV:  30    -0.336513780076E+03   -0.55022E-03   -0.26245E-04  4064   0.577E-02    0.106E-01
DAV:  31    -0.336514320604E+03   -0.54053E-03   -0.20072E-04  4112   0.506E-02    0.700E-02
DAV:  32    -0.336514596955E+03   -0.27635E-03   -0.82579E-05  4200   0.338E-02    0.602E-02
DAV:  33    -0.336515060794E+03   -0.46384E-03   -0.78630E-05  4136   0.300E-02    0.692E-02
DAV:  34    -0.336515279447E+03   -0.21865E-03   -0.45119E-05  4232   0.233E-02    0.482E-02
DAV:  35    -0.336515625191E+03   -0.34574E-03   -0.32997E-05  4160   0.200E-02    0.355E-02
DAV:  36    -0.336516063617E+03   -0.43843E-03   -0.49270E-05  4128   0.188E-02    0.200E-02
DAV:  37    -0.336516272230E+03   -0.20861E-03   -0.22459E-05  4248   0.133E-02    0.186E-02
DAV:  38    -0.336516376825E+03   -0.10459E-03   -0.79314E-06  4248   0.938E-03    0.121E-02
DAV:  39    -0.336516533394E+03   -0.15657E-03   -0.56907E-06  4184   0.765E-03    0.115E-02
DAV:  40    -0.336516693490E+03   -0.16010E-03   -0.50429E-06  4192   0.722E-03    0.893E-03
DAV:  41    -0.336516833348E+03   -0.13986E-03   -0.34717E-06  4176   0.560E-03    0.110E-02
DAV:  42    -0.336516955535E+03   -0.12219E-03   -0.33584E-06  4160   0.498E-03    0.676E-03
DAV:  43    -0.336516999758E+03   -0.44223E-04   -0.10989E-06  4160   0.283E-03    0.584E-03
DAV:  44    -0.336517051048E+03   -0.51290E-04   -0.12297E-06  3672   0.264E-03    0.455E-03
DAV:  45    -0.336517071906E+03   -0.20859E-04   -0.48130E-07  3424   0.183E-03    0.406E-03
DAV:  46    -0.336517095747E+03   -0.23841E-04   -0.72214E-07  3272   0.171E-03    0.232E-03
DAV:  47    -0.336517101527E+03   -0.57802E-05   -0.15289E-07  2936   0.105E-03    0.168E-03
DAV:  48    -0.336517107865E+03   -0.63380E-05   -0.24208E-07  3024   0.913E-04    0.825E-04
DAV:  49    -0.336517108866E+03   -0.10002E-05   -0.28723E-08  2608   0.466E-04    0.612E-04
DAV:  50    -0.336517110473E+03   -0.16074E-05   -0.40362E-08  2480   0.345E-04    0.635E-04
DAV:  51    -0.336517110585E+03   -0.11226E-06   -0.10572E-08  2400   0.358E-04    0.305E-04
DAV:  52    -0.336517111377E+03   -0.79192E-06   -0.14297E-08  2408   0.238E-04    0.347E-04
DAV:  53    -0.336517111773E+03   -0.39532E-06   -0.95936E-09  2512   0.202E-04    0.156E-04
DAV:  54    -0.336517111999E+03   -0.22628E-06   -0.54629E-09  2424   0.120E-04    0.151E-04
DAV:  55    -0.336517112133E+03   -0.13384E-06   -0.39066E-09  2464   0.103E-04    0.933E-05
DAV:  56    -0.336517112247E+03   -0.11405E-06   -0.31709E-09  2384   0.851E-05    0.993E-05
DAV:  57    -0.336517112288E+03   -0.40913E-07   -0.18711E-09  2384   0.693E-05
   1 F= -.33651711E+03 E0= -.33639313E+03  d E =-.371961E+00
 Finite differences POTIM= 0.00200 DOF=   9
 bond charge predicted
       N       E                     dE             d eps       ncg     rms          rms(c)
DAV:   1    -0.336516730356E+03    0.38189E-03   -0.15665E-02  4000   0.142E-01    0.405E-02
DAV:   2    -0.336516751851E+03   -0.21495E-04   -0.23035E-04  4312   0.241E-02    0.481E-02
DAV:   3    -0.336516807286E+03   -0.55436E-04   -0.11741E-04  4408   0.441E-02    0.105E-01
DAV:   4    -0.336516753713E+03    0.53573E-04   -0.97452E-05  4720   0.434E-02    0.598E-02
DAV:   5    -0.336516738446E+03    0.15267E-04   -0.42120E-05  4400   0.290E-02    0.358E-02
DAV:   6    -0.336516733920E+03    0.45256E-05   -0.25417E-05  4736   0.198E-02    0.258E-02
DAV:   7    -0.336516731812E+03    0.21083E-05   -0.14800E-05  4232   0.147E-02    0.174E-02
DAV:   8    -0.336516730984E+03    0.82831E-06   -0.59193E-06  4280   0.104E-02    0.124E-02
DAV:   9    -0.336516729842E+03    0.11421E-05   -0.21139E-06  4184   0.647E-03    0.522E-03
DAV:  10    -0.336516729782E+03    0.59852E-07   -0.75701E-07  3848   0.346E-03
   2 F= -.33651673E+03 E0= -.33639274E+03  d E =-.371964E+00
 Finite differences progress:
  Degree of freedom:   1/  9
  Displacement:        1/  2
  Total:               1/ 18
 bond charge predicted
       N       E                     dE             d eps       ncg     rms          rms(c)
DAV:   1    -0.336517257777E+03   -0.52794E-03   -0.62740E-02  4000   0.285E-01    0.812E-02
DAV:   2    -0.336517345616E+03   -0.87839E-04   -0.92473E-04  4312   0.493E-02    0.991E-02
DAV:   3    -0.336517549922E+03   -0.20431E-03   -0.45765E-04  4400   0.869E-02    0.204E-01
DAV:   4    -0.336517368586E+03    0.18134E-03   -0.39535E-04  4704   0.873E-02    0.127E-01
DAV:   5    -0.336517300099E+03    0.68487E-04   -0.18126E-04  4408   0.605E-02    0.761E-02
DAV:   6    -0.336517276395E+03    0.23703E-04   -0.10641E-04  4720   0.406E-02    0.526E-02
DAV:   7    -0.336517265971E+03    0.10424E-04   -0.62732E-05  4216   0.297E-02    0.338E-02
DAV:   8    -0.336517261489E+03    0.44829E-05   -0.24348E-05  4232   0.207E-02    0.236E-02
DAV:   9    -0.336517257248E+03    0.42408E-05   -0.83086E-06  4200   0.128E-02    0.107E-02
DAV:  10    -0.336517256650E+03    0.59755E-06   -0.29104E-06  4200   0.688E-03    0.626E-03
DAV:  11    -0.336517256688E+03   -0.38221E-07   -0.11362E-06  3968   0.445E-03    0.586E-03
DAV:  12    -0.336517256512E+03    0.17647E-06   -0.62342E-07  3064   0.353E-03    0.392E-03
DAV:  13    -0.336517256557E+03   -0.44878E-07   -0.38619E-07  2472   0.242E-03
   3 F= -.33651726E+03 E0= -.33639327E+03  d E =-.371962E+00
 Finite differences progress:
  Degree of freedom:   1/  9
  Displacement:        2/  2
  Total:               2/ 18
 bond charge predicted
       N       E                     dE             d eps       ncg     rms          rms(c)
DAV:   1    -0.336516943918E+03    0.31259E-03   -0.28989E-02  4000   0.188E-01    0.383E-02
DAV:   2    -0.336516956073E+03   -0.12155E-04   -0.23465E-04  4152   0.203E-02    0.306E-02
DAV:   3    -0.336516973140E+03   -0.17068E-04   -0.50533E-05  4584   0.276E-02    0.575E-02
DAV:   4    -0.336516961507E+03    0.11634E-04   -0.54301E-05  4376   0.299E-02    0.407E-02
DAV:   5    -0.336516960506E+03    0.10006E-05   -0.30800E-05  4496   0.227E-02    0.390E-02
DAV:   6    -0.336516957517E+03    0.29889E-05   -0.23362E-05  4208   0.203E-02    0.323E-02
DAV:   7    -0.336516952294E+03    0.52230E-05   -0.11415E-05  4224   0.146E-02    0.152E-02
DAV:   8    -0.336516951442E+03    0.85166E-06   -0.35524E-06  4280   0.827E-03    0.887E-03
DAV:   9    -0.336516950821E+03    0.62177E-06   -0.10685E-06  3816   0.465E-03    0.409E-03
DAV:  10    -0.336516950803E+03    0.18059E-07   -0.46806E-07  3384   0.267E-03
   4 F= -.33651695E+03 E0= -.33639296E+03  d E =-.371961E+00
 Finite differences progress:
  Degree of freedom:   2/  9
  Displacement:        1/  2
  Total:               3/ 18
 bond charge predicted
       N       E                     dE             d eps       ncg     rms          rms(c)
DAV:   1    -0.336517216287E+03   -0.26547E-03   -0.58088E-02  4000   0.267E-01    0.536E-02
DAV:   2    -0.336517249024E+03   -0.32736E-04   -0.46375E-04  4168   0.318E-02    0.543E-02
DAV:   3    -0.336517361500E+03   -0.11248E-03   -0.18987E-04  4568   0.571E-02    0.139E-01
DAV:   4    -0.336517282803E+03    0.78696E-04   -0.18696E-04  4648   0.604E-02    0.918E-02
DAV:   5    -0.336517242980E+03    0.39824E-04   -0.10243E-04  4472   0.418E-02    0.500E-02
DAV:   6    -0.336517232219E+03    0.10761E-04   -0.46590E-05  4736   0.256E-02    0.291E-02
DAV:   7    -0.336517229368E+03    0.28512E-05   -0.20645E-05  4096   0.175E-02    0.189E-02
DAV:   8    -0.336517228053E+03    0.13151E-05   -0.72202E-06  4136   0.117E-02    0.129E-02
DAV:   9    -0.336517226708E+03    0.13444E-05   -0.21425E-06  4144   0.650E-03    0.480E-03
DAV:  10    -0.336517226769E+03   -0.60027E-07   -0.86487E-07  3864   0.357E-03
   5 F= -.33651723E+03 E0= -.33639324E+03  d E =-.371968E+00
 Finite differences progress:
  Degree of freedom:   2/  9
  Displacement:        2/  2
  Total:               4/ 18
 bond charge predicted
       N       E                     dE             d eps       ncg     rms          rms(c)
DAV:   1    -0.336516785365E+03    0.44134E-03   -0.29641E-02  4000   0.188E-01    0.507E-02
DAV:   2    -0.336516835979E+03   -0.50614E-04   -0.39143E-04  4160   0.437E-02    0.771E-02
DAV:   3    -0.336516862988E+03   -0.27009E-04   -0.14178E-04  4320   0.513E-02    0.102E-01
DAV:   4    -0.336516818750E+03    0.44238E-04   -0.11529E-04  4296   0.473E-02    0.640E-02
DAV:   5    -0.336516820701E+03   -0.19511E-05   -0.87040E-05  4304   0.385E-02    0.617E-02
DAV:   6    -0.336516803030E+03    0.17670E-04   -0.62196E-05  4392   0.321E-02    0.400E-02
DAV:   7    -0.336516794421E+03    0.86100E-05   -0.26382E-05  4232   0.208E-02    0.210E-02
DAV:   8    -0.336516793824E+03    0.59657E-06   -0.10671E-05  4192   0.139E-02    0.182E-02
DAV:   9    -0.336516791010E+03    0.28142E-05   -0.40728E-06  4168   0.914E-03    0.636E-03
DAV:  10    -0.336516790766E+03    0.24354E-06   -0.90200E-07  4040   0.377E-03    0.324E-03
DAV:  11    -0.336516790868E+03   -0.10134E-06   -0.41836E-07  2488   0.263E-03    0.501E-03
DAV:  12    -0.336516790706E+03    0.16129E-06   -0.30810E-07  2456   0.233E-03    0.223E-03
DAV:  13    -0.336516790662E+03    0.44121E-07   -0.85234E-08  2240   0.125E-03
   6 F= -.33651679E+03 E0= -.33639278E+03  d E =-.372044E+00
 Finite differences progress:
  Degree of freedom:   3/  9
  Displacement:        1/  2
  Total:               5/ 18
 bond charge predicted
       N       E                     dE             d eps       ncg     rms          rms(c)
DAV:   1    -0.336517297269E+03   -0.50656E-03   -0.60166E-02  4000   0.273E-01    0.731E-02
DAV:   2    -0.336517423617E+03   -0.12635E-03   -0.85709E-04  4120   0.685E-02    0.119E-01
DAV:   3    -0.336517446346E+03   -0.22730E-04   -0.26513E-04  4264   0.705E-02    0.136E-01
DAV:   4    -0.336517365964E+03    0.80383E-04   -0.19871E-04  4264   0.624E-02    0.839E-02
DAV:   5    -0.336517395049E+03   -0.29086E-04   -0.16198E-04  4328   0.536E-02    0.990E-02
DAV:   6    -0.336517353474E+03    0.41575E-04   -0.14305E-04  4304   0.485E-02    0.625E-02
DAV:   7    -0.336517330932E+03    0.22542E-04   -0.61805E-05  4312   0.330E-02    0.307E-02
DAV:   8    -0.336517331395E+03   -0.46246E-06   -0.23868E-05  4248   0.212E-02    0.293E-02
DAV:   9    -0.336517323950E+03    0.74450E-05   -0.99313E-06  4240   0.142E-02    0.845E-03
DAV:  10    -0.336517323727E+03    0.22264E-06   -0.18548E-06  4128   0.500E-03    0.395E-03
DAV:  11    -0.336517323948E+03   -0.22137E-06   -0.70774E-07  3424   0.310E-03    0.587E-03
DAV:  12    -0.336517323780E+03    0.16878E-06   -0.45175E-07  2504   0.270E-03    0.268E-03
DAV:  13    -0.336517323772E+03    0.77707E-08   -0.15465E-07  2288   0.159E-03
   7 F= -.33651732E+03 E0= -.33639336E+03  d E =-.371885E+00
 Finite differences progress:
  Degree of freedom:   3/  9
  Displacement:        2/  2
  Total:               6/ 18
 bond charge predicted
       N       E                     dE             d eps       ncg     rms          rms(c)
DAV:   1    -0.336516651822E+03    0.67196E-03   -0.33699E-02  4000   0.200E-01    0.636E-02
DAV:   2    -0.336516744332E+03   -0.92509E-04   -0.70232E-04  4160   0.552E-02    0.992E-02
DAV:   3    -0.336516793199E+03   -0.48868E-04   -0.26669E-04  4264   0.670E-02    0.137E-01
DAV:   4    -0.336516706442E+03    0.86757E-04   -0.19867E-04  4528   0.617E-02    0.816E-02
DAV:   5    -0.336516701448E+03    0.49941E-05   -0.12140E-04  4312   0.471E-02    0.725E-02
DAV:   6    -0.336516680855E+03    0.20593E-04   -0.91102E-05  4384   0.383E-02    0.523E-02
DAV:   7    -0.336516663967E+03    0.16888E-04   -0.41179E-05  4272   0.266E-02    0.240E-02
DAV:   8    -0.336516662852E+03    0.11144E-05   -0.14498E-05  4232   0.165E-02    0.203E-02
DAV:   9    -0.336516659748E+03    0.31047E-05   -0.59854E-06  4256   0.110E-02    0.946E-03
DAV:  10    -0.336516659090E+03    0.65807E-06   -0.17591E-06  4184   0.560E-03    0.439E-03
DAV:  11    -0.336516659065E+03    0.24847E-07   -0.59726E-07  3672   0.305E-03
   8 F= -.33651666E+03 E0= -.33639268E+03  d E =-.371936E+00
 Finite differences progress:
  Degree of freedom:   4/  9
  Displacement:        1/  2
  Total:               7/ 18
 bond charge predicted
       N       E                     dE             d eps       ncg     rms          rms(c)
DAV:   1    -0.336517371703E+03   -0.71261E-03   -0.58118E-02  4000   0.255E-01    0.826E-02
DAV:   2    -0.336517497754E+03   -0.12605E-03   -0.11921E-03  4208   0.565E-02    0.102E-01
DAV:   3    -0.336517640017E+03   -0.14226E-03   -0.43544E-04  4488   0.815E-02    0.186E-01
DAV:   4    -0.336517482562E+03    0.15746E-03   -0.36360E-04  4632   0.821E-02    0.115E-01
DAV:   5    -0.336517452324E+03    0.30238E-04   -0.20448E-04  4352   0.606E-02    0.881E-02
DAV:   6    -0.336517423213E+03    0.29111E-04   -0.13887E-04  4496   0.453E-02    0.632E-02
DAV:   7    -0.336517399056E+03    0.24157E-04   -0.67249E-05  4240   0.329E-02    0.294E-02
DAV:   8    -0.336517398418E+03    0.63788E-06   -0.24042E-05  4184   0.205E-02    0.255E-02
DAV:   9    -0.336517393889E+03    0.45289E-05   -0.88333E-06  4168   0.130E-02    0.119E-02
DAV:  10    -0.336517393049E+03    0.84005E-06   -0.24954E-06  4176   0.676E-03    0.613E-03
DAV:  11    -0.336517393234E+03   -0.18511E-06   -0.10876E-06  3904   0.425E-03    0.737E-03
DAV:  12    -0.336517393013E+03    0.22080E-06   -0.76707E-07  3216   0.363E-03    0.425E-03
DAV:  13    -0.336517392961E+03    0.52700E-07   -0.32701E-07  2456   0.243E-03
   9 F= -.33651739E+03 E0= -.33639340E+03  d E =-.371980E+00
 Finite differences progress:
  Degree of freedom:   4/  9
  Displacement:        2/  2
  Total:               8/ 18
 bond charge predicted
       N       E                     dE             d eps       ncg     rms          rms(c)
DAV:   1    -0.336517392172E+03    0.84084E-06   -0.28276E-02  4000   0.179E-01    0.399E-02
DAV:   2    -0.336517411544E+03   -0.19371E-04   -0.26802E-04  4096   0.224E-02    0.362E-02
DAV:   3    -0.336517419740E+03   -0.81969E-05   -0.47259E-05  4840   0.259E-02    0.487E-02
DAV:   4    -0.336517420972E+03   -0.12316E-05   -0.56634E-05  4280   0.310E-02    0.497E-02
DAV:   5    -0.336517432036E+03   -0.11064E-04   -0.52600E-05  4392   0.316E-02    0.643E-02
DAV:   6    -0.336517407172E+03    0.24864E-04   -0.34519E-05  4400   0.258E-02    0.280E-02
DAV:   7    -0.336517403891E+03    0.32814E-05   -0.12574E-05  4168   0.139E-02    0.145E-02
DAV:   8    -0.336517403199E+03    0.69196E-06   -0.43312E-06  4224   0.873E-03    0.102E-02
DAV:   9    -0.336517402462E+03    0.73649E-06   -0.13345E-06  3968   0.527E-03    0.472E-03
DAV:  10    -0.336517402334E+03    0.12807E-06   -0.47042E-07  3328   0.281E-03    0.238E-03
DAV:  11    -0.336517402412E+03   -0.77482E-07   -0.23168E-07  2472   0.197E-03
  10 F= -.33651740E+03 E0= -.33639341E+03  d E =-.371983E+00
 Finite differences progress:
  Degree of freedom:   5/  9
  Displacement:        1/  2
  Total:               9/ 18
 bond charge predicted
       N       E                     dE             d eps       ncg     rms          rms(c)
DAV:   1    -0.336516769844E+03    0.63249E-03   -0.56345E-02  4000   0.253E-01    0.565E-02
DAV:   2    -0.336516805957E+03   -0.36113E-04   -0.54647E-04  4072   0.321E-02    0.472E-02
DAV:   3    -0.336516867417E+03   -0.61460E-04   -0.12493E-04  4856   0.434E-02    0.103E-01
DAV:   4    -0.336516867225E+03    0.19258E-06   -0.18017E-04  4408   0.573E-02    0.106E-01
DAV:   5    -0.336516819023E+03    0.48202E-04   -0.11441E-04  4448   0.488E-02    0.641E-02
DAV:   6    -0.336516796325E+03    0.22698E-04   -0.53208E-05  4616   0.304E-02    0.335E-02
DAV:   7    -0.336516790939E+03    0.53852E-05   -0.23650E-05  4184   0.182E-02    0.183E-02
DAV:   8    -0.336516790166E+03    0.77367E-06   -0.80627E-06  4200   0.116E-02    0.147E-02
DAV:   9    -0.336516788436E+03    0.17301E-05   -0.26153E-06  4184   0.730E-03    0.528E-03
DAV:  10    -0.336516788381E+03    0.54300E-07   -0.81956E-07  3808   0.355E-03
  11 F= -.33651679E+03 E0= -.33639281E+03  d E =-.371940E+00
 Finite differences progress:
  Degree of freedom:   5/  9
  Displacement:        2/  2
  Total:              10/ 18
 bond charge predicted
       N       E                     dE             d eps       ncg     rms          rms(c)
DAV:   1    -0.336516828380E+03   -0.39944E-04   -0.29808E-02  4000   0.193E-01    0.487E-02
DAV:   2    -0.336516849646E+03   -0.21266E-04   -0.35454E-04  4224   0.305E-02    0.458E-02
DAV:   3    -0.336516911459E+03   -0.61813E-04   -0.13531E-04  4320   0.475E-02    0.106E-01
DAV:   4    -0.336516922297E+03   -0.10838E-04   -0.15958E-04  4400   0.551E-02    0.111E-01
DAV:   5    -0.336516845359E+03    0.76938E-04   -0.10160E-04  4384   0.432E-02    0.390E-02
DAV:   6    -0.336516840375E+03    0.49834E-05   -0.27325E-05  4240   0.235E-02    0.233E-02
DAV:   7    -0.336516839679E+03    0.69637E-06   -0.14812E-05  4248   0.164E-02    0.207E-02
DAV:   8    -0.336516836949E+03    0.27300E-05   -0.65426E-06  4216   0.112E-02    0.106E-02
DAV:   9    -0.336516836463E+03    0.48603E-06   -0.21460E-06  4176   0.575E-03    0.636E-03
DAV:  10    -0.336516836456E+03    0.66866E-08   -0.87323E-07  3784   0.384E-03
  12 F= -.33651684E+03 E0= -.33639286E+03  d E =-.371930E+00
 Finite differences progress:
  Degree of freedom:   6/  9
  Displacement:        1/  2
  Total:              11/ 18
 bond charge predicted
       N       E                     dE             d eps       ncg     rms          rms(c)
DAV:   1    -0.336517228839E+03   -0.39238E-03   -0.60071E-02  4000   0.278E-01    0.683E-02
DAV:   2    -0.336517270330E+03   -0.41491E-04   -0.75386E-04  4424   0.418E-02    0.544E-02
DAV:   3    -0.336517404168E+03   -0.13384E-03   -0.20680E-04  4520   0.623E-02    0.151E-01
DAV:   4    -0.336517299910E+03    0.10426E-03   -0.23389E-04  5088   0.653E-02    0.877E-02
DAV:   5    -0.336517295960E+03    0.39505E-05   -0.13592E-04  4392   0.483E-02    0.816E-02
DAV:   6    -0.336517258963E+03    0.36997E-04   -0.69424E-05  5112   0.336E-02    0.296E-02
DAV:   7    -0.336517258787E+03    0.17582E-06   -0.27488E-05  4128   0.215E-02    0.253E-02
DAV:   8    -0.336517255244E+03    0.35436E-05   -0.12566E-05  4216   0.156E-02    0.179E-02
DAV:   9    -0.336517252976E+03    0.22678E-05   -0.49047E-06  4128   0.901E-03    0.712E-03
DAV:  10    -0.336517253180E+03   -0.20402E-06   -0.17988E-06  4120   0.503E-03    0.829E-03
DAV:  11    -0.336517252856E+03    0.32403E-06   -0.10169E-06  3480   0.407E-03    0.472E-03
DAV:  12    -0.336517252762E+03    0.93554E-07   -0.37418E-07  2544   0.274E-03
  13 F= -.33651725E+03 E0= -.33639325E+03  d E =-.371994E+00
 Finite differences progress:
  Degree of freedom:   6/  9
  Displacement:        2/  2
  Total:              12/ 18
 bond charge predicted
       N       E                     dE             d eps       ncg     rms          rms(c)
DAV:   1    -0.336517132550E+03    0.12031E-03   -0.34940E-02  4000   0.268E-01    0.493E-02
DAV:   2    -0.336517218127E+03   -0.85577E-04   -0.66259E-04  4256   0.430E-02    0.802E-02
DAV:   3    -0.336517277860E+03   -0.59734E-04   -0.21363E-04  4248   0.599E-02    0.127E-01
DAV:   4    -0.336517191678E+03    0.86182E-04   -0.14603E-04  4496   0.534E-02    0.628E-02
DAV:   5    -0.336517181006E+03    0.10672E-04   -0.51976E-05  4248   0.322E-02    0.429E-02
DAV:   6    -0.336517174892E+03    0.61136E-05   -0.31366E-05  4376   0.228E-02    0.289E-02
DAV:   7    -0.336517174929E+03   -0.36831E-07   -0.20108E-05  4344   0.177E-02    0.243E-02
DAV:   8    -0.336517173237E+03    0.16924E-05   -0.11482E-05  4280   0.145E-02    0.166E-02
DAV:   9    -0.336517171636E+03    0.16011E-05   -0.43666E-06  4312   0.934E-03    0.861E-03
DAV:  10    -0.336517171250E+03    0.38557E-06   -0.16959E-06  4112   0.509E-03    0.456E-03
DAV:  11    -0.336517171266E+03   -0.16145E-07   -0.54794E-07  2992   0.302E-03
  14 F= -.33651717E+03 E0= -.33639318E+03  d E =-.371976E+00
 Finite differences progress:
  Degree of freedom:   7/  9
  Displacement:        1/  2
  Total:              13/ 18
 bond charge predicted
       N       E                     dE             d eps       ncg     rms          rms(c)
DAV:   1    -0.336516947310E+03    0.22394E-03   -0.85338E-02  4000   0.435E-01    0.668E-02
DAV:   2    -0.336517201578E+03   -0.25427E-03   -0.14307E-03  4272   0.745E-02    0.146E-01
DAV:   3    -0.336517207140E+03   -0.55625E-05   -0.44605E-04  4240   0.887E-02    0.161E-01
DAV:   4    -0.336517078070E+03    0.12907E-03   -0.25153E-04  4384   0.700E-02    0.840E-02
DAV:   5    -0.336517072950E+03    0.51208E-05   -0.10980E-04  4272   0.450E-02    0.673E-02
DAV:   6    -0.336517051018E+03    0.21931E-04   -0.60473E-05  4320   0.318E-02    0.333E-02
DAV:   7    -0.336517050797E+03    0.22180E-06   -0.27199E-05  4224   0.209E-02    0.255E-02
DAV:   8    -0.336517051878E+03   -0.10818E-05   -0.14651E-05  4152   0.163E-02    0.207E-02
DAV:   9    -0.336517048949E+03    0.29295E-05   -0.71146E-06  4136   0.118E-02    0.106E-02
DAV:  10    -0.336517048361E+03    0.58835E-06   -0.22486E-06  4160   0.587E-03    0.554E-03
DAV:  11    -0.336517048342E+03    0.18787E-07   -0.78743E-07  3816   0.340E-03
  15 F= -.33651705E+03 E0= -.33639306E+03  d E =-.371951E+00
 Finite differences progress:
  Degree of freedom:   7/  9
  Displacement:        2/  2
  Total:              14/ 18
 bond charge predicted
       N       E                     dE             d eps       ncg     rms          rms(c)
DAV:   1    -0.336517042204E+03    0.61564E-05   -0.43856E-02  4000   0.316E-01    0.423E-02
DAV:   2    -0.336517122910E+03   -0.80706E-04   -0.62440E-04  4176   0.504E-02    0.706E-02
DAV:   3    -0.336517106252E+03    0.16658E-04   -0.96653E-05  4224   0.437E-02    0.579E-02
DAV:   4    -0.336517132820E+03   -0.26568E-04   -0.89395E-05  4264   0.411E-02    0.839E-02
DAV:   5    -0.336517107065E+03    0.25755E-04   -0.72783E-05  4368   0.369E-02    0.548E-02
DAV:   6    -0.336517091028E+03    0.16037E-04   -0.31366E-05  4288   0.233E-02    0.215E-02
DAV:   7    -0.336517090156E+03    0.87213E-06   -0.10573E-05  4248   0.134E-02    0.146E-02
DAV:   8    -0.336517090108E+03    0.47374E-07   -0.40364E-06  4200   0.854E-03    0.995E-03
DAV:   9    -0.336517089391E+03    0.71710E-06   -0.16360E-06  4088   0.543E-03    0.466E-03
DAV:  10    -0.336517089306E+03    0.85434E-07   -0.43799E-07  2528   0.247E-03
  16 F= -.33651709E+03 E0= -.33639311E+03  d E =-.371933E+00
 Finite differences progress:
  Degree of freedom:   8/  9
  Displacement:        1/  2
  Total:              15/ 18
 bond charge predicted
       N       E                     dE             d eps       ncg     rms          rms(c)
DAV:   1    -0.336517032235E+03    0.57157E-04   -0.86829E-02  4000   0.445E-01    0.607E-02
DAV:   2    -0.336517214847E+03   -0.18261E-03   -0.12843E-03  4192   0.684E-02    0.108E-01
DAV:   3    -0.336517263482E+03   -0.48635E-04   -0.31411E-04  4264   0.749E-02    0.145E-01
DAV:   4    -0.336517168412E+03    0.95070E-04   -0.21393E-04  4232   0.637E-02    0.830E-02
DAV:   5    -0.336517155534E+03    0.12878E-04   -0.99415E-05  4224   0.436E-02    0.643E-02
DAV:   6    -0.336517134565E+03    0.20970E-04   -0.56731E-05  4200   0.310E-02    0.325E-02
DAV:   7    -0.336517131862E+03    0.27025E-05   -0.23678E-05  4200   0.197E-02    0.222E-02
DAV:   8    -0.336517131399E+03    0.46293E-06   -0.11138E-05  4264   0.140E-02    0.167E-02
DAV:   9    -0.336517129866E+03    0.15333E-05   -0.54872E-06  4144   0.101E-02    0.108E-02
DAV:  10    -0.336517129078E+03    0.78815E-06   -0.18936E-06  4120   0.543E-03    0.443E-03
DAV:  11    -0.336517129048E+03    0.29766E-07   -0.52573E-07  3528   0.263E-03
  17 F= -.33651713E+03 E0= -.33639314E+03  d E =-.371972E+00
 Finite differences progress:
  Degree of freedom:   8/  9
  Displacement:        2/  2
  Total:              16/ 18
 bond charge predicted
       N       E                     dE             d eps       ncg     rms          rms(c)
DAV:   1    -0.336515335802E+03    0.17933E-02   -0.43527E-02  4000   0.313E-01    0.455E-02
DAV:   2    -0.336515442445E+03   -0.10664E-03   -0.66555E-04  4120   0.563E-02    0.971E-02
DAV:   3    -0.336515426322E+03    0.16123E-04   -0.13849E-04  4224   0.513E-02    0.852E-02
DAV:   4    -0.336515401042E+03    0.25280E-04   -0.99657E-05  4224   0.442E-02    0.618E-02
DAV:   5    -0.336515401047E+03   -0.47075E-08   -0.62176E-05  4480   0.334E-02    0.571E-02
DAV:   6    -0.336515387698E+03    0.13349E-04   -0.44597E-05  4272   0.268E-02    0.339E-02
DAV:   7    -0.336515381802E+03    0.58957E-05   -0.15398E-05  4400   0.162E-02    0.171E-02
DAV:   8    -0.336515381868E+03   -0.65251E-07   -0.95058E-06  4152   0.117E-02    0.142E-02
DAV:   9    -0.336515381077E+03    0.79046E-06   -0.43078E-06  4184   0.864E-03    0.104E-02
DAV:  10    -0.336515380189E+03    0.88795E-06   -0.13875E-06  3960   0.490E-03    0.359E-03
DAV:  11    -0.336515380154E+03    0.34961E-07   -0.33921E-07  3200   0.200E-03
  18 F= -.33651538E+03 E0= -.33639134E+03  d E =-.372133E+00
 Finite differences progress:
  Degree of freedom:   9/  9
  Displacement:        1/  2
  Total:              17/ 18
 bond charge predicted
       N       E                     dE             d eps       ncg     rms          rms(c)
DAV:   1    -0.336518780437E+03   -0.34002E-02   -0.84575E-02  4000   0.427E-01    0.722E-02
DAV:   2    -0.336519216335E+03   -0.43590E-03   -0.14930E-03  4160   0.103E-01    0.232E-01
DAV:   3    -0.336518942302E+03    0.27403E-03   -0.51767E-04  4240   0.978E-02    0.130E-01
DAV:   4    -0.336518868219E+03    0.74083E-04   -0.20088E-04  4232   0.629E-02    0.737E-02
DAV:   5    -0.336518909023E+03   -0.40804E-04   -0.13888E-04  4232   0.484E-02    0.920E-02
DAV:   6    -0.336518875707E+03    0.33315E-04   -0.12264E-04  4304   0.444E-02    0.538E-02
DAV:   7    -0.336518860797E+03    0.14910E-04   -0.43904E-05  4312   0.275E-02    0.291E-02
DAV:   8    -0.336518858714E+03    0.20837E-05   -0.21294E-05  4272   0.180E-02    0.204E-02
DAV:   9    -0.336518857068E+03    0.16455E-05   -0.92186E-06  4184   0.124E-02    0.141E-02
DAV:  10    -0.336518855713E+03    0.13550E-05   -0.27002E-06  4504   0.681E-03    0.556E-03
DAV:  11    -0.336518855798E+03   -0.84998E-07   -0.10120E-06  3944   0.351E-03    0.527E-03
DAV:  12    -0.336518855776E+03    0.22410E-07   -0.50297E-07  2744   0.291E-03
  19 F= -.33651886E+03 E0= -.33639493E+03  d E =-.371780E+00
 Finite differences progress:
  Degree of freedom:   9/  9
  Displacement:        2/  2
  Total:              18/ 18
 Finite differences POTIM=  2.000000000000000E-003
