 vasp.5.4.4.18Apr17-6-g9f103f2a35 (build Aug 16 2021 22:57:11) complex          
  
 POSCAR found type information on POSCAR  Pd N  O 
 02/POSCAR found :  3 types and      67 ions
 scaLAPACK will be used

 ----------------------------------------------------------------------------- 
|                                                                             |
|  ADVICE TO THIS USER RUNNING 'VASP/VAMP'   (HEAR YOUR MASTER'S VOICE ...):  |
|                                                                             |
|      You have a (more or less) 'large supercell' and for larger cells       |
|      it might be more efficient to use real space projection opertators     |
|      So try LREAL= Auto  in the INCAR   file.                               |
|      Mind:          For very  accurate calculation you might also keep the  |
|      reciprocal projection scheme          (i.e. LREAL=.FALSE.)             |
|                                                                             |
 ----------------------------------------------------------------------------- 

 LDA part: xc-table for Pade appr. of Perdew
 00/POSCAR found :  3 types and      67 ions
 06/POSCAR found :  3 types and      67 ions
 Jacobian:    26.7849458530529     
 POSCAR, INCAR and KPOINTS ok, starting setup
 FFT: planning ...
 WAVECAR not read
 entering main loop
       N       E                     dE             d eps       ncg     rms          rms(c)
DAV:   1     0.381664190422E+04    0.38166E+04   -0.26675E+05  4072   0.117E+03
DAV:   2    -0.121094988681E+03   -0.39377E+04   -0.36829E+04  4456   0.285E+02
DAV:   3    -0.345782559816E+03   -0.22469E+03   -0.19966E+03  4488   0.612E+01
DAV:   4    -0.354234872284E+03   -0.84523E+01   -0.81343E+01  4688   0.117E+01
DAV:   5    -0.354560579303E+03   -0.32571E+00   -0.32269E+00  5776   0.230E+00    0.502E+01
DAV:   6    -0.340801633044E+03    0.13759E+02   -0.58395E+01  4456   0.178E+01    0.317E+01
DAV:   7    -0.352906562956E+03   -0.12105E+02   -0.24131E+01  4792   0.200E+01    0.354E+01
DAV:   8    -0.357435054157E+03   -0.45285E+01   -0.42634E+01  4248   0.316E+01    0.388E+01
DAV:   9    -0.353785910758E+03    0.36491E+01   -0.22164E+01  4472   0.211E+01    0.378E+01
DAV:  10    -0.345923372106E+03    0.78625E+01   -0.10825E+01  4192   0.194E+01    0.276E+01
DAV:  11    -0.340032118669E+03    0.58913E+01   -0.90221E+00  4168   0.135E+01    0.205E+01
DAV:  12    -0.339050295460E+03    0.98182E+00   -0.10022E+01  4200   0.126E+01    0.170E+01
DAV:  13    -0.337097983225E+03    0.19523E+01   -0.40726E+00  4160   0.831E+00    0.862E+00
DAV:  14    -0.337104621530E+03   -0.66383E-02   -0.17233E+00  4208   0.528E+00    0.905E+00
DAV:  15    -0.336823012981E+03    0.28161E+00   -0.12225E+00  4216   0.405E+00    0.577E+00
DAV:  16    -0.336697432734E+03    0.12558E+00   -0.40547E-01  4216   0.248E+00    0.435E+00
DAV:  17    -0.336649398020E+03    0.48035E-01   -0.23093E-01  4168   0.183E+00    0.401E+00
DAV:  18    -0.336583259029E+03    0.66139E-01   -0.15418E-01  4256   0.152E+00    0.280E+00
DAV:  19    -0.336550795415E+03    0.32464E-01   -0.82104E-02  4192   0.114E+00    0.219E+00
DAV:  20    -0.336534461645E+03    0.16334E-01   -0.76036E-02  4464   0.105E+00    0.175E+00
DAV:  21    -0.336517806057E+03    0.16656E-01   -0.46170E-02  4120   0.839E-01    0.918E-01
DAV:  22    -0.336514225343E+03    0.35807E-02   -0.12398E-02  4128   0.421E-01    0.608E-01
DAV:  23    -0.336513955670E+03    0.26967E-03   -0.63818E-03  4136   0.323E-01    0.586E-01
DAV:  24    -0.336513162398E+03    0.79327E-03   -0.40820E-03  4200   0.257E-01    0.447E-01
DAV:  25    -0.336513230081E+03   -0.67683E-04   -0.26702E-03  4128   0.209E-01    0.393E-01
DAV:  26    -0.336512546727E+03    0.68335E-03   -0.17273E-03  4216   0.172E-01    0.195E-01
DAV:  27    -0.336512658489E+03   -0.11176E-03   -0.80673E-04  4256   0.103E-01    0.141E-01
DAV:  28    -0.336512971430E+03   -0.31294E-03   -0.46431E-04  4096   0.795E-02    0.138E-01
DAV:  29    -0.336513229858E+03   -0.25843E-03   -0.34554E-04  4136   0.684E-02    0.945E-02
DAV:  30    -0.336513780076E+03   -0.55022E-03   -0.26245E-04  4064   0.577E-02    0.106E-01
DAV:  31    -0.336514320604E+03   -0.54053E-03   -0.20072E-04  4112   0.506E-02    0.700E-02
DAV:  32    -0.336514596954E+03   -0.27635E-03   -0.82579E-05  4200   0.338E-02    0.602E-02
DAV:  33    -0.336515060794E+03   -0.46384E-03   -0.78630E-05  4136   0.300E-02    0.692E-02
DAV:  34    -0.336515279447E+03   -0.21865E-03   -0.45119E-05  4232   0.233E-02    0.482E-02
DAV:  35    -0.336515625190E+03   -0.34574E-03   -0.32997E-05  4160   0.200E-02    0.355E-02
DAV:  36    -0.336516063617E+03   -0.43843E-03   -0.49270E-05  4128   0.188E-02    0.200E-02
DAV:  37    -0.336516272230E+03   -0.20861E-03   -0.22459E-05  4248   0.133E-02    0.186E-02
DAV:  38    -0.336516376822E+03   -0.10459E-03   -0.78962E-06  3752   0.938E-03    0.121E-02
DAV:  39    -0.336516533473E+03   -0.15665E-03   -0.56254E-06  3392   0.764E-03    0.114E-02
DAV:  40    -0.336516693601E+03   -0.16013E-03   -0.50330E-06  3392   0.722E-03    0.890E-03
DAV:  41    -0.336516833180E+03   -0.13958E-03   -0.34393E-06  3120   0.561E-03    0.110E-02
DAV:  42    -0.336516955483E+03   -0.12230E-03   -0.34107E-06  3192   0.499E-03    0.677E-03
DAV:  43    -0.336516999551E+03   -0.44067E-04   -0.10208E-06  2648   0.284E-03    0.584E-03
DAV:  44    -0.336517051261E+03   -0.51711E-04   -0.15110E-06  2880   0.266E-03    0.453E-03
DAV:  45    -0.336517071644E+03   -0.20383E-04   -0.46523E-07  2520   0.184E-03    0.403E-03
DAV:  46    -0.336517095805E+03   -0.24160E-04   -0.90705E-07  2616   0.173E-03    0.232E-03
DAV:  47    -0.336517101566E+03   -0.57617E-05   -0.19848E-07  2560   0.107E-03    0.168E-03
DAV:  48    -0.336517107857E+03   -0.62909E-05   -0.28237E-07  2368   0.933E-04    0.844E-04
DAV:  49    -0.336517108868E+03   -0.10110E-05   -0.69953E-08  2512   0.506E-04    0.619E-04
DAV:  50    -0.336517110416E+03   -0.15475E-05   -0.59351E-08  2376   0.361E-04    0.632E-04
DAV:  51    -0.336517110540E+03   -0.12438E-06   -0.18021E-08  2288   0.375E-04
   1 F= -.33651711E+03 E0= -.33639312E+03  d E =-.336517E+03
quench:  g(F)=  0.000E+00 g(S)=  0.000E+00 dE (1.order)= 0.000E+00
 bond charge predicted
       N       E                     dE             d eps       ncg     rms          rms(c)
DAV:   1    -0.336517060357E+03    0.50059E-04   -0.42516E-05  4072   0.928E-03    0.193E-03
DAV:   2    -0.336517060890E+03   -0.53317E-06   -0.11772E-06  2592   0.265E-03    0.578E-03
DAV:   3    -0.336517060805E+03    0.85289E-07   -0.39628E-07  2248   0.274E-03    0.387E-03
DAV:   4    -0.336517060774E+03    0.30559E-07   -0.17820E-07  2160   0.191E-03    0.221E-03
DAV:   5    -0.336517060886E+03   -0.11174E-06   -0.94918E-08  2216   0.128E-03
   2 F= -.33651706E+03 E0= -.33639307E+03  d E =0.496543E-04
quench:  g(F)=  0.000E+00 g(S)=  0.000E+00 dE (1.order)= 0.000E+00
 bond charge predicted
       N       E                     dE             d eps       ncg     rms          rms(c)
DAV:   1    -0.336516959372E+03    0.10140E-03   -0.16953E-04  4032   0.186E-02    0.411E-03
DAV:   2    -0.336516960487E+03   -0.11154E-05   -0.48118E-06  3280   0.518E-03    0.108E-02
DAV:   3    -0.336516960078E+03    0.40871E-06   -0.15289E-06  2320   0.526E-03    0.736E-03
DAV:   4    -0.336516960014E+03    0.64108E-07   -0.83037E-07  2240   0.410E-03    0.696E-03
DAV:   5    -0.336516959814E+03    0.20034E-06   -0.48853E-07  2168   0.297E-03
   3 F= -.33651696E+03 E0= -.33639297E+03  d E =0.101072E-03
quench:  g(F)=  0.000E+00 g(S)=  0.000E+00 dE (1.order)= 0.000E+00
 bond charge predicted
       N       E                     dE             d eps       ncg     rms          rms(c)
DAV:   1    -0.336516808756E+03    0.15126E-03   -0.38061E-04  4016   0.279E-02    0.633E-03
DAV:   2    -0.336516810997E+03   -0.22408E-05   -0.10629E-05  3840   0.767E-03    0.153E-02
DAV:   3    -0.336516810300E+03    0.69691E-06   -0.33434E-06  2496   0.806E-03    0.121E-02
DAV:   4    -0.336516809936E+03    0.36437E-06   -0.21821E-06  2296   0.644E-03    0.102E-02
DAV:   5    -0.336516809535E+03    0.40086E-06   -0.11451E-06  2224   0.447E-03
   4 F= -.33651681E+03 E0= -.33639281E+03  d E =0.150279E-03
quench:  g(F)=  0.000E+00 g(S)=  0.000E+00 dE (1.order)= 0.000E+00
 bond charge predicted
       N       E                     dE             d eps       ncg     rms          rms(c)
DAV:   1    -0.336516610650E+03    0.19929E-03   -0.67643E-04  4016   0.372E-02    0.963E-03
DAV:   2    -0.336516618240E+03   -0.75904E-05   -0.25570E-05  4176   0.151E-02    0.303E-02
DAV:   3    -0.336516612554E+03    0.56866E-05   -0.10280E-05  3488   0.136E-02    0.139E-02
DAV:   4    -0.336516613127E+03   -0.57306E-06   -0.40238E-06  2336   0.871E-03    0.167E-02
DAV:   5    -0.336516611849E+03    0.12772E-05   -0.27425E-06  2336   0.715E-03    0.903E-03
DAV:   6    -0.336516611677E+03    0.17234E-06   -0.14943E-06  2288   0.521E-03
   5 F= -.33651661E+03 E0= -.33639261E+03  d E =0.197858E-03
quench:  g(F)=  0.000E+00 g(S)=  0.000E+00 dE (1.order)= 0.000E+00
 bond charge predicted
       N       E                     dE             d eps       ncg     rms          rms(c)
DAV:   1    -0.336516367129E+03    0.24472E-03   -0.10542E-03  4000   0.463E-02    0.105E-02
DAV:   2    -0.336516376524E+03   -0.93950E-05   -0.33431E-05  4176   0.153E-02    0.329E-02
DAV:   3    -0.336516371288E+03    0.52363E-05   -0.12008E-05  3104   0.152E-02    0.212E-02
DAV:   4    -0.336516369342E+03    0.19453E-05   -0.54754E-06  2424   0.102E-02    0.121E-02
DAV:   5    -0.336516368954E+03    0.38828E-06   -0.16725E-06  2360   0.546E-03
   6 F= -.33651637E+03 E0= -.33639236E+03  d E =0.242723E-03
quench:  g(F)=  0.000E+00 g(S)=  0.000E+00 dE (1.order)= 0.000E+00
 bond charge predicted
       N       E                     dE             d eps       ncg     rms          rms(c)
DAV:   1    -0.336516082335E+03    0.28701E-03   -0.15147E-03  4000   0.556E-02    0.146E-02
DAV:   2    -0.336516104680E+03   -0.22345E-04   -0.63936E-05  4232   0.241E-02    0.541E-02
DAV:   3    -0.336516085691E+03    0.18989E-04   -0.29016E-05  4232   0.218E-02    0.166E-02
DAV:   4    -0.336516089331E+03   -0.36406E-05   -0.85367E-06  2536   0.129E-02    0.288E-02
DAV:   5    -0.336516084533E+03    0.47983E-05   -0.66135E-06  2720   0.110E-02    0.960E-03
DAV:   6    -0.336516084701E+03   -0.16838E-06   -0.23809E-06  2432   0.703E-03
   7 F= -.33651608E+03 E0= -.33639206E+03  d E =0.284253E-03
quench:  g(F)=  0.000E+00 g(S)=  0.000E+00 dE (1.order)= 0.000E+00
 bond charge predicted
       N       E                     dE             d eps       ncg     rms          rms(c)
DAV:   1    -0.336515758787E+03    0.32575E-03   -0.20563E-03  4000   0.646E-02    0.140E-02
DAV:   2    -0.336515773260E+03   -0.14472E-04   -0.59419E-05  4184   0.179E-02    0.402E-02
DAV:   3    -0.336515765490E+03    0.77692E-05   -0.18426E-05  3616   0.185E-02    0.250E-02
DAV:   4    -0.336515764025E+03    0.14650E-05   -0.91512E-06  2872   0.133E-02    0.188E-02
DAV:   5    -0.336515762863E+03    0.11624E-05   -0.44225E-06  2464   0.875E-03    0.118E-02
DAV:   6    -0.336515762644E+03    0.21877E-06   -0.28960E-06  2544   0.734E-03
   8 F= -.33651576E+03 E0= -.33639173E+03  d E =0.322057E-03
quench:  g(F)=  0.000E+00 g(S)=  0.000E+00 dE (1.order)= 0.000E+00
 bond charge predicted
       N       E                     dE             d eps       ncg     rms          rms(c)
DAV:   1    -0.336515401439E+03    0.36142E-03   -0.26783E-03  4000   0.736E-02    0.168E-02
DAV:   2    -0.336515427720E+03   -0.26281E-04   -0.86277E-05  4192   0.248E-02    0.558E-02
DAV:   3    -0.336515411750E+03    0.15969E-04   -0.32800E-05  4192   0.247E-02    0.331E-02
DAV:   4    -0.336515407456E+03    0.42943E-05   -0.13676E-05  3360   0.162E-02    0.202E-02
DAV:   5    -0.336515407486E+03   -0.30501E-07   -0.60371E-06  2656   0.104E-02
   9 F= -.33651541E+03 E0= -.33639133E+03  d E =0.355158E-03
quench:  g(F)=  0.000E+00 g(S)=  0.000E+00 dE (1.order)= 0.000E+00
 bond charge predicted
       N       E                     dE             d eps       ncg     rms          rms(c)
DAV:   1    -0.336515017261E+03    0.39019E-03   -0.33717E-03  4000   0.829E-02    0.208E-02
DAV:   2    -0.336515048292E+03   -0.31031E-04   -0.11688E-04  4200   0.296E-02    0.611E-02
DAV:   3    -0.336515024383E+03    0.23909E-04   -0.43849E-05  4256   0.269E-02    0.230E-02
DAV:   4    -0.336515033980E+03   -0.95976E-05   -0.18438E-05  3760   0.184E-02    0.433E-02
DAV:   5    -0.336515023524E+03    0.10456E-04   -0.15919E-05  3648   0.173E-02    0.184E-02
DAV:   6    -0.336515023503E+03    0.20962E-07   -0.65244E-06  2912   0.114E-02
  10 F= -.33651502E+03 E0= -.33639091E+03  d E =0.383983E-03
quench:  g(F)=  0.000E+00 g(S)=  0.000E+00 dE (1.order)= 0.000E+00
 bond charge predicted
       N       E                     dE             d eps       ncg     rms          rms(c)
DAV:   1    -0.336514609629E+03    0.41390E-03   -0.41478E-03  4000   0.916E-02    0.203E-02
DAV:   2    -0.336514632503E+03   -0.22874E-04   -0.11346E-04  4168   0.235E-02    0.469E-02
DAV:   3    -0.336514626817E+03    0.56856E-05   -0.34002E-05  4104   0.262E-02    0.411E-02
DAV:   4    -0.336514621338E+03    0.54790E-05   -0.22250E-05  3872   0.202E-02    0.287E-02
DAV:   5    -0.336514617713E+03    0.36256E-05   -0.98417E-06  3504   0.127E-02    0.149E-02
DAV:   6    -0.336514618106E+03   -0.39331E-06   -0.60378E-06  2840   0.104E-02
  11 F= -.33651462E+03 E0= -.33639050E+03  d E =0.405397E-03
quench:  g(F)=  0.000E+00 g(S)=  0.000E+00 dE (1.order)= 0.000E+00
 bond charge predicted
       N       E                     dE             d eps       ncg     rms          rms(c)
DAV:   1    -0.336514186605E+03    0.43111E-03   -0.50035E-03  4000   0.100E-01    0.222E-02
DAV:   2    -0.336514219144E+03   -0.32539E-04   -0.14485E-04  4192   0.275E-02    0.597E-02
DAV:   3    -0.336514206036E+03    0.13107E-04   -0.46656E-05  4224   0.293E-02    0.433E-02
DAV:   4    -0.336514199726E+03    0.63102E-05   -0.25220E-05  4128   0.218E-02    0.307E-02
DAV:   5    -0.336514198398E+03    0.13282E-05   -0.16387E-05  4016   0.157E-02    0.233E-02
DAV:   6    -0.336514195489E+03    0.29087E-05   -0.79313E-06  3280   0.119E-02    0.110E-02
DAV:   7    -0.336514195719E+03   -0.22980E-06   -0.37510E-06  2456   0.813E-03
  12 F= -.33651420E+03 E0= -.33639006E+03  d E =0.422387E-03
quench:  g(F)=  0.000E+00 g(S)=  0.000E+00 dE (1.order)= 0.000E+00
 bond charge predicted
       N       E                     dE             d eps       ncg     rms          rms(c)
DAV:   1    -0.336513755901E+03    0.43959E-03   -0.59177E-03  4000   0.108E-01    0.243E-02
DAV:   2    -0.336513819818E+03   -0.63917E-04   -0.19669E-04  4208   0.376E-02    0.872E-02
DAV:   3    -0.336513780557E+03    0.39261E-04   -0.80315E-05  4256   0.381E-02    0.512E-02
DAV:   4    -0.336513768103E+03    0.12454E-04   -0.27845E-05  4168   0.235E-02    0.262E-02
DAV:   5    -0.336513770248E+03   -0.21451E-05   -0.15604E-05  4112   0.157E-02    0.276E-02
DAV:   6    -0.336513766269E+03    0.39791E-05   -0.10400E-05  3400   0.131E-02    0.130E-02
DAV:   7    -0.336513766480E+03   -0.21086E-06   -0.41943E-06  2536   0.886E-03
  13 F= -.33651377E+03 E0= -.33638958E+03  d E =0.429240E-03
quench:  g(F)=  0.000E+00 g(S)=  0.000E+00 dE (1.order)= 0.000E+00
 bond charge predicted
       N       E                     dE             d eps       ncg     rms          rms(c)
DAV:   1    -0.336513325428E+03    0.44084E-03   -0.69083E-03  4000   0.117E-01    0.257E-02
DAV:   2    -0.336513390710E+03   -0.65282E-04   -0.21631E-04  4200   0.376E-02    0.868E-02
DAV:   3    -0.336513351732E+03    0.38978E-04   -0.80374E-05  4272   0.386E-02    0.508E-02
DAV:   4    -0.336513340373E+03    0.11359E-04   -0.29785E-05  4232   0.243E-02    0.283E-02
DAV:   5    -0.336513343367E+03   -0.29937E-05   -0.18200E-05  4072   0.167E-02    0.319E-02
DAV:   6    -0.336513337497E+03    0.58700E-05   -0.12148E-05  3520   0.142E-02    0.113E-02
DAV:   7    -0.336513338121E+03   -0.62420E-06   -0.40722E-06  2824   0.881E-03
  14 F= -.33651334E+03 E0= -.33638913E+03  d E =0.428359E-03
quench:  g(F)=  0.000E+00 g(S)=  0.000E+00 dE (1.order)= 0.000E+00
 bond charge predicted
       N       E                     dE             d eps       ncg     rms          rms(c)
DAV:   1    -0.336512904345E+03    0.43315E-03   -0.79626E-03  4000   0.125E-01    0.268E-02
DAV:   2    -0.336512974011E+03   -0.69666E-04   -0.24041E-04  4192   0.378E-02    0.897E-02
DAV:   3    -0.336512929976E+03    0.44035E-04   -0.81751E-05  4264   0.389E-02    0.473E-02
DAV:   4    -0.336512922902E+03    0.70746E-05   -0.28943E-05  4208   0.244E-02    0.313E-02
DAV:   5    -0.336512924283E+03   -0.13809E-05   -0.19418E-05  4136   0.179E-02    0.317E-02
DAV:   6    -0.336512918751E+03    0.55316E-05   -0.12886E-05  3816   0.144E-02    0.127E-02
DAV:   7    -0.336512919630E+03   -0.87838E-06   -0.45926E-06  2704   0.922E-03
  15 F= -.33651292E+03 E0= -.33638866E+03  d E =0.418491E-03
quench:  g(F)=  0.000E+00 g(S)=  0.000E+00 dE (1.order)= 0.000E+00
 bond charge predicted
       N       E                     dE             d eps       ncg     rms          rms(c)
DAV:   1    -0.336512503778E+03    0.41497E-03   -0.90805E-03  4000   0.134E-01    0.288E-02
DAV:   2    -0.336512583784E+03   -0.80006E-04   -0.27680E-04  4200   0.408E-02    0.957E-02
DAV:   3    -0.336512534323E+03    0.49461E-04   -0.95121E-05  4240   0.421E-02    0.521E-02
DAV:   4    -0.336512525652E+03    0.86710E-05   -0.36062E-05  4216   0.267E-02    0.350E-02
DAV:   5    -0.336512526775E+03   -0.11228E-05   -0.24059E-05  4184   0.193E-02    0.340E-02
DAV:   6    -0.336512520267E+03    0.65079E-05   -0.14794E-05  3944   0.155E-02    0.128E-02
DAV:   7    -0.336512521241E+03   -0.97443E-06   -0.55231E-06  3128   0.101E-02
  16 F= -.33651252E+03 E0= -.33638826E+03  d E =0.398389E-03
quench:  g(F)=  0.000E+00 g(S)=  0.000E+00 dE (1.order)= 0.000E+00
 bond charge predicted
       N       E                     dE             d eps       ncg     rms          rms(c)
DAV:   1    -0.336512135269E+03    0.38500E-03   -0.10258E-02  4000   0.141E-01    0.310E-02
DAV:   2    -0.336512235932E+03   -0.10066E-03   -0.32464E-04  4208   0.458E-02    0.108E-01
DAV:   3    -0.336512172632E+03    0.63301E-04   -0.12014E-04  4248   0.470E-02    0.599E-02
DAV:   4    -0.336512158205E+03    0.14427E-04   -0.41470E-05  4256   0.291E-02    0.342E-02
DAV:   5    -0.336512159934E+03   -0.17289E-05   -0.22358E-05  4192   0.195E-02    0.332E-02
DAV:   6    -0.336512154428E+03    0.55057E-05   -0.16276E-05  4008   0.163E-02    0.170E-02
DAV:   7    -0.336512155151E+03   -0.72331E-06   -0.74029E-06  3216   0.115E-02
  17 F= -.33651216E+03 E0= -.33638783E+03  d E =0.366090E-03
quench:  g(F)=  0.000E+00 g(S)=  0.000E+00 dE (1.order)= 0.000E+00
 bond charge predicted
       N       E                     dE             d eps       ncg     rms          rms(c)
DAV:   1    -0.336511809426E+03    0.34500E-03   -0.11494E-02  4000   0.149E-01    0.330E-02
DAV:   2    -0.336511920142E+03   -0.11072E-03   -0.36567E-04  4200   0.486E-02    0.113E-01
DAV:   3    -0.336511853116E+03    0.67026E-04   -0.13442E-04  4248   0.501E-02    0.646E-02
DAV:   4    -0.336511835255E+03    0.17861E-04   -0.48510E-05  4240   0.311E-02    0.365E-02
DAV:   5    -0.336511839533E+03   -0.42784E-05   -0.29073E-05  4224   0.212E-02    0.401E-02
DAV:   6    -0.336511830299E+03    0.92342E-05   -0.19253E-05  4016   0.178E-02    0.141E-02
DAV:   7    -0.336511831492E+03   -0.11935E-05   -0.66457E-06  3616   0.112E-02    0.154E-02
DAV:   8    -0.336511829903E+03    0.15889E-05   -0.33606E-06  2576   0.849E-03    0.653E-03
DAV:   9    -0.336511829736E+03    0.16767E-06   -0.10826E-06  2152   0.411E-03
  18 F= -.33651183E+03 E0= -.33638748E+03  d E =0.325416E-03
quench:  g(F)=  0.000E+00 g(S)=  0.000E+00 dE (1.order)= 0.000E+00
 bond charge predicted
       N       E                     dE             d eps       ncg     rms          rms(c)
DAV:   1    -0.336511540454E+03    0.28945E-03   -0.12779E-02  4000   0.157E-01    0.333E-02
DAV:   2    -0.336511632898E+03   -0.92444E-04   -0.37773E-04  4192   0.453E-02    0.101E-01
DAV:   3    -0.336511587833E+03    0.45065E-04   -0.11840E-04  4272   0.473E-02    0.647E-02
DAV:   4    -0.336511571403E+03    0.16430E-04   -0.51334E-05  4232   0.322E-02    0.404E-02
DAV:   5    -0.336511569556E+03    0.18467E-05   -0.26007E-05  4288   0.214E-02    0.336E-02
DAV:   6    -0.336511565690E+03    0.38663E-05   -0.19711E-05  4176   0.177E-02    0.216E-02
DAV:   7    -0.336511564219E+03    0.14711E-05   -0.82194E-06  3368   0.120E-02    0.138E-02
DAV:   8    -0.336511563885E+03    0.33360E-06   -0.45969E-06  3200   0.897E-03
  19 F= -.33651156E+03 E0= -.33638718E+03  d E =0.265851E-03
quench:  g(F)=  0.000E+00 g(S)=  0.000E+00 dE (1.order)= 0.000E+00
 bond charge predicted
       N       E                     dE             d eps       ncg     rms          rms(c)
DAV:   1    -0.336511340206E+03    0.22401E-03   -0.14119E-02  4000   0.164E-01    0.357E-02
DAV:   2    -0.336511450507E+03   -0.11030E-03   -0.42952E-04  4208   0.491E-02    0.110E-01
DAV:   3    -0.336511395115E+03    0.55392E-04   -0.14323E-04  4280   0.516E-02    0.714E-02
DAV:   4    -0.336511373966E+03    0.21150E-04   -0.60513E-05  4248   0.347E-02    0.420E-02
DAV:   5    -0.336511372864E+03    0.11015E-05   -0.29609E-05  4232   0.232E-02    0.353E-02
DAV:   6    -0.336511367689E+03    0.51746E-05   -0.20139E-05  4184   0.184E-02    0.217E-02
DAV:   7    -0.336511367242E+03    0.44756E-06   -0.10324E-05  3792   0.131E-02    0.176E-02
DAV:   8    -0.336511365992E+03    0.12494E-05   -0.46271E-06  2840   0.928E-03    0.909E-03
DAV:   9    -0.336511365459E+03    0.53398E-06   -0.17609E-06  2400   0.561E-03
  20 F= -.33651137E+03 E0= -.33638694E+03  d E =0.198427E-03
quench:  g(F)=  0.000E+00 g(S)=  0.000E+00 dE (1.order)= 0.000E+00
 bond charge predicted
       N       E                     dE             d eps       ncg     rms          rms(c)
DAV:   1    -0.336511222867E+03    0.14313E-03   -0.15504E-02  4000   0.171E-01    0.367E-02
DAV:   2    -0.336511337828E+03   -0.11496E-03   -0.46599E-04  4192   0.503E-02    0.112E-01
DAV:   3    -0.336511281883E+03    0.55946E-04   -0.14780E-04  4280   0.527E-02    0.724E-02
DAV:   4    -0.336511261488E+03    0.20395E-04   -0.63314E-05  4272   0.357E-02    0.458E-02
DAV:   5    -0.336511258920E+03    0.25677E-05   -0.32990E-05  4312   0.237E-02    0.373E-02
DAV:   6    -0.336511253584E+03    0.53364E-05   -0.23539E-05  4208   0.194E-02    0.224E-02
DAV:   7    -0.336511252266E+03    0.13177E-05   -0.95188E-06  3712   0.130E-02    0.151E-02
DAV:   8    -0.336511251845E+03    0.42085E-06   -0.53881E-06  3272   0.985E-03
  21 F= -.33651125E+03 E0= -.33638679E+03  d E =0.113613E-03
quench:  g(F)=  0.000E+00 g(S)=  0.000E+00 dE (1.order)= 0.000E+00
 bond charge predicted
       N       E                     dE             d eps       ncg     rms          rms(c)
DAV:   1    -0.336511202853E+03    0.49413E-04   -0.16934E-02  4000   0.178E-01    0.389E-02
DAV:   2    -0.336511333355E+03   -0.13050E-03   -0.51865E-04  4224   0.533E-02    0.119E-01
DAV:   3    -0.336511269846E+03    0.63509E-04   -0.17053E-04  4264   0.563E-02    0.784E-02
DAV:   4    -0.336511244328E+03    0.25518E-04   -0.72364E-05  4240   0.380E-02    0.463E-02
DAV:   5    -0.336511242740E+03    0.15884E-05   -0.35456E-05  4240   0.253E-02    0.387E-02
DAV:   6    -0.336511236280E+03    0.64603E-05   -0.23766E-05  4280   0.199E-02    0.229E-02
DAV:   7    -0.336511236055E+03    0.22414E-06   -0.12214E-05  3960   0.142E-02    0.193E-02
DAV:   8    -0.336511234521E+03    0.15342E-05   -0.56222E-06  3064   0.102E-02    0.100E-02
DAV:   9    -0.336511233884E+03    0.63683E-06   -0.21003E-06  2400   0.616E-03
  22 F= -.33651123E+03 E0= -.33638672E+03  d E =0.179609E-04
quench:  g(F)=  0.000E+00 g(S)=  0.000E+00 dE (1.order)= 0.000E+00
 bond charge predicted
       N       E                     dE             d eps       ncg     rms          rms(c)
DAV:   1    -0.336511294308E+03   -0.59787E-04   -0.18405E-02  4000   0.185E-01    0.397E-02
DAV:   2    -0.336511427283E+03   -0.13298E-03   -0.55464E-04  4208   0.540E-02    0.120E-01
DAV:   3    -0.336511365071E+03    0.62213E-04   -0.17134E-04  4280   0.568E-02    0.785E-02
DAV:   4    -0.336511341513E+03    0.23558E-04   -0.74629E-05  4256   0.388E-02    0.504E-02
DAV:   5    -0.336511337502E+03    0.40113E-05   -0.38353E-05  4320   0.257E-02    0.397E-02
DAV:   6    -0.336511331383E+03    0.61188E-05   -0.26631E-05  4264   0.207E-02    0.236E-02
DAV:   7    -0.336511330150E+03    0.12330E-05   -0.11009E-05  3984   0.140E-02    0.165E-02
DAV:   8    -0.336511329583E+03    0.56694E-06   -0.62917E-06  3408   0.107E-02
  23 F= -.33651133E+03 E0= -.33638678E+03  d E =-.956990E-04
quench:  g(F)=  0.000E+00 g(S)=  0.000E+00 dE (1.order)= 0.000E+00
 bond charge predicted
       N       E                     dE             d eps       ncg     rms          rms(c)
DAV:   1    -0.336511511292E+03   -0.18114E-03   -0.19916E-02  4000   0.191E-01    0.418E-02
DAV:   2    -0.336511660492E+03   -0.14920E-03   -0.61144E-04  4232   0.568E-02    0.127E-01
DAV:   3    -0.336511590914E+03    0.69578E-04   -0.19505E-04  4264   0.604E-02    0.846E-02
DAV:   4    -0.336511561687E+03    0.29227E-04   -0.84178E-05  4240   0.410E-02    0.506E-02
DAV:   5    -0.336511558703E+03    0.29840E-05   -0.40295E-05  4240   0.272E-02    0.409E-02
DAV:   6    -0.336511551449E+03    0.72539E-05   -0.26529E-05  4288   0.211E-02    0.241E-02
DAV:   7    -0.336511551529E+03   -0.79541E-07   -0.13877E-05  4136   0.152E-02    0.210E-02
DAV:   8    -0.336511549640E+03    0.18889E-05   -0.64511E-06  3176   0.110E-02    0.107E-02
DAV:   9    -0.336511548909E+03    0.73027E-06   -0.23679E-06  2440   0.656E-03
  24 F= -.33651155E+03 E0= -.33638695E+03  d E =-.219326E-03
quench:  g(F)=  0.000E+00 g(S)=  0.000E+00 dE (1.order)= 0.000E+00
 bond charge predicted
       N       E                     dE             d eps       ncg     rms          rms(c)
DAV:   1    -0.336511868241E+03   -0.31860E-03   -0.21464E-02  4000   0.198E-01    0.424E-02
DAV:   2    -0.336512018145E+03   -0.14990E-03   -0.65136E-04  4216   0.571E-02    0.125E-01
DAV:   3    -0.336511952088E+03    0.66057E-04   -0.19454E-04  4264   0.605E-02    0.846E-02
DAV:   4    -0.336511925190E+03    0.26897E-04   -0.86397E-05  4264   0.418E-02    0.549E-02
DAV:   5    -0.336511919364E+03    0.58267E-05   -0.43852E-05  4296   0.275E-02    0.418E-02
DAV:   6    -0.336511912446E+03    0.69173E-05   -0.29648E-05  4312   0.218E-02    0.245E-02
DAV:   7    -0.336511911441E+03    0.10058E-05   -0.12432E-05  4152   0.148E-02    0.178E-02
DAV:   8    -0.336511910717E+03    0.72364E-06   -0.71110E-06  3496   0.114E-02
  25 F= -.33651191E+03 E0= -.33638727E+03  d E =-.361808E-03
quench:  g(F)=  0.000E+00 g(S)=  0.000E+00 dE (1.order)= 0.000E+00
 bond charge predicted
       N       E                     dE             d eps       ncg     rms          rms(c)
DAV:   1    -0.336512378184E+03   -0.46674E-03   -0.23051E-02  4000   0.204E-01    0.446E-02
DAV:   2    -0.336512545884E+03   -0.16770E-03   -0.71504E-04  4248   0.599E-02    0.133E-01
DAV:   3    -0.336512472022E+03    0.73862E-04   -0.22079E-04  4248   0.642E-02    0.908E-02
DAV:   4    -0.336512438838E+03    0.33184E-04   -0.96923E-05  4248   0.441E-02    0.550E-02
DAV:   5    -0.336512433919E+03    0.49189E-05   -0.45451E-05  4232   0.289E-02    0.428E-02
DAV:   6    -0.336512425935E+03    0.79841E-05   -0.29073E-05  4296   0.221E-02    0.249E-02
DAV:   7    -0.336512426412E+03   -0.47743E-06   -0.15796E-05  4176   0.161E-02    0.226E-02
DAV:   8    -0.336512424169E+03    0.22430E-05   -0.73304E-06  3224   0.117E-02    0.113E-02
DAV:   9    -0.336512423353E+03    0.81628E-06   -0.26483E-06  2464   0.696E-03
  26 F= -.33651242E+03 E0= -.33638773E+03  d E =-.512636E-03
quench:  g(F)=  0.000E+00 g(S)=  0.000E+00 dE (1.order)= 0.000E+00
 bond charge predicted
       N       E                     dE             d eps       ncg     rms          rms(c)
DAV:   1    -0.336513053031E+03   -0.62886E-03   -0.24673E-02  4000   0.210E-01    0.449E-02
DAV:   2    -0.336513218415E+03   -0.16538E-03   -0.75403E-04  4240   0.596E-02    0.130E-01
DAV:   3    -0.336513151053E+03    0.67362E-04   -0.21526E-04  4256   0.638E-02    0.902E-02
DAV:   4    -0.336513121619E+03    0.29434E-04   -0.98627E-05  4248   0.446E-02    0.600E-02
DAV:   5    -0.336513112784E+03    0.88345E-05   -0.49064E-05  4296   0.292E-02    0.433E-02
DAV:   6    -0.336513105243E+03    0.75413E-05   -0.31589E-05  4328   0.227E-02    0.250E-02
DAV:   7    -0.336513104637E+03    0.60652E-06   -0.13631E-05  4240   0.156E-02    0.191E-02
DAV:   8    -0.336513103691E+03    0.94587E-06   -0.79627E-06  3592   0.122E-02
  27 F= -.33651310E+03 E0= -.33638837E+03  d E =-.680338E-03
quench:  g(F)=  0.000E+00 g(S)=  0.000E+00 dE (1.order)= 0.000E+00
 bond charge predicted
       N       E                     dE             d eps       ncg     rms          rms(c)
DAV:   1    -0.336513903634E+03   -0.79900E-03   -0.26338E-02  4000   0.215E-01    0.470E-02
DAV:   2    -0.336514086458E+03   -0.18282E-03   -0.82011E-04  4264   0.622E-02    0.136E-01
DAV:   3    -0.336514012200E+03    0.74258E-04   -0.24067E-04  4248   0.672E-02    0.961E-02
DAV:   4    -0.336513976302E+03    0.35898E-04   -0.10887E-04  4248   0.468E-02    0.596E-02
DAV:   5    -0.336513968389E+03    0.79133E-05   -0.49695E-05  4232   0.305E-02    0.440E-02
DAV:   6    -0.336513959875E+03    0.85137E-05   -0.30785E-05  4320   0.228E-02    0.254E-02
DAV:   7    -0.336513960914E+03   -0.10389E-05   -0.17013E-05  4184   0.169E-02    0.242E-02
DAV:   8    -0.336513958204E+03    0.27100E-05   -0.80160E-06  3232   0.124E-02    0.118E-02
DAV:   9    -0.336513957318E+03    0.88658E-06   -0.28252E-06  2480   0.721E-03
  28 F= -.33651396E+03 E0= -.33638917E+03  d E =-.853627E-03
quench:  g(F)=  0.000E+00 g(S)=  0.000E+00 dE (1.order)= 0.000E+00
 bond charge predicted
       N       E                     dE             d eps       ncg     rms          rms(c)
DAV:   1    -0.336514938870E+03   -0.98067E-03   -0.28038E-02  4000   0.221E-01    0.471E-02
DAV:   2    -0.336515117196E+03   -0.17833E-03   -0.86768E-04  4272   0.615E-02    0.132E-01
DAV:   3    -0.336515052934E+03    0.64262E-04   -0.23440E-04  4248   0.664E-02    0.957E-02
DAV:   4    -0.336515020630E+03    0.32304E-04   -0.11080E-04  4248   0.473E-02    0.648E-02
DAV:   5    -0.336515008377E+03    0.12253E-04   -0.54649E-05  4272   0.307E-02    0.445E-02
DAV:   6    -0.336515000335E+03    0.80417E-05   -0.33722E-05  4320   0.233E-02    0.254E-02
DAV:   7    -0.336515000054E+03    0.28108E-06   -0.14696E-05  4248   0.161E-02    0.200E-02
DAV:   8    -0.336514998954E+03    0.10999E-05   -0.85923E-06  3672   0.128E-02    0.144E-02
DAV:   9    -0.336514997696E+03    0.12586E-05   -0.35867E-06  2512   0.830E-03    0.818E-03
DAV:  10    -0.336514997212E+03    0.48343E-06   -0.10152E-06  2368   0.416E-03
  29 F= -.33651500E+03 E0= -.33639017E+03  d E =-.103989E-02
quench:  g(F)=  0.000E+00 g(S)=  0.000E+00 dE (1.order)= 0.000E+00
 bond charge predicted
       N       E                     dE             d eps       ncg     rms          rms(c)
DAV:   1    -0.336516167550E+03   -0.11699E-02   -0.29787E-02  4000   0.226E-01    0.478E-02
DAV:   2    -0.336516334277E+03   -0.16673E-03   -0.91621E-04  4280   0.595E-02    0.122E-01
DAV:   3    -0.336516293428E+03    0.40850E-04   -0.22904E-04  4248   0.655E-02    0.100E-01
DAV:   4    -0.336516256654E+03    0.36774E-04   -0.11656E-04  4232   0.486E-02    0.670E-02
DAV:   5    -0.336516241833E+03    0.14820E-04   -0.56182E-05  4304   0.311E-02    0.439E-02
DAV:   6    -0.336516234159E+03    0.76742E-05   -0.34425E-05  4304   0.232E-02    0.251E-02
DAV:   7    -0.336516234564E+03   -0.40469E-06   -0.14277E-05  4280   0.159E-02    0.214E-02
DAV:   8    -0.336516232948E+03    0.16159E-05   -0.95342E-06  3752   0.134E-02    0.146E-02
DAV:   9    -0.336516231847E+03    0.11011E-05   -0.38635E-06  2472   0.829E-03    0.976E-03
DAV:  10    -0.336516231233E+03    0.61392E-06   -0.14760E-06  2464   0.474E-03
  30 F= -.33651623E+03 E0= -.33639135E+03  d E =-.123402E-02
quench:  g(F)=  0.000E+00 g(S)=  0.000E+00 dE (1.order)= 0.000E+00
 bond charge predicted
       N       E                     dE             d eps       ncg     rms          rms(c)
DAV:   1    -0.336517597706E+03   -0.13659E-02   -0.31602E-02  4000   0.232E-01    0.486E-02
DAV:   2    -0.336517765077E+03   -0.16737E-03   -0.94955E-04  4296   0.593E-02    0.121E-01
DAV:   3    -0.336517728972E+03    0.36105E-04   -0.23033E-04  4264   0.660E-02    0.102E-01
DAV:   4    -0.336517691675E+03    0.37297E-04   -0.12035E-04  4232   0.492E-02    0.681E-02
DAV:   5    -0.336517674859E+03    0.16817E-04   -0.56431E-05  4288   0.312E-02    0.433E-02
DAV:   6    -0.336517667887E+03    0.69722E-05   -0.33919E-05  4304   0.231E-02    0.257E-02
DAV:   7    -0.336517667815E+03    0.71988E-07   -0.14365E-05  4264   0.160E-02    0.202E-02
DAV:   8    -0.336517666503E+03    0.13113E-05   -0.89650E-06  3792   0.131E-02    0.145E-02
DAV:   9    -0.336517665372E+03    0.11313E-05   -0.37364E-06  2472   0.816E-03    0.967E-03
DAV:  10    -0.336517664789E+03    0.58310E-06   -0.14392E-06  2456   0.459E-03
  31 F= -.33651766E+03 E0= -.33639274E+03  d E =-.143356E-02
quench:  g(F)=  0.000E+00 g(S)=  0.000E+00 dE (1.order)= 0.000E+00
 bond charge predicted
       N       E                     dE             d eps       ncg     rms          rms(c)
DAV:   1    -0.336519230406E+03   -0.15650E-02   -0.33474E-02  4000   0.237E-01    0.493E-02
DAV:   2    -0.336519398056E+03   -0.16765E-03   -0.98570E-04  4304   0.590E-02    0.119E-01
DAV:   3    -0.336519367825E+03    0.30231E-04   -0.23233E-04  4264   0.663E-02    0.104E-01
DAV:   4    -0.336519329787E+03    0.38038E-04   -0.12393E-04  4232   0.500E-02    0.698E-02
DAV:   5    -0.336519310796E+03    0.18991E-04   -0.57481E-05  4280   0.317E-02    0.431E-02
DAV:   6    -0.336519304084E+03    0.67121E-05   -0.34038E-05  4304   0.231E-02    0.258E-02
DAV:   7    -0.336519304311E+03   -0.22725E-06   -0.14625E-05  4296   0.161E-02    0.209E-02
DAV:   8    -0.336519302688E+03    0.16231E-05   -0.91264E-06  3792   0.133E-02    0.143E-02
DAV:   9    -0.336519301593E+03    0.10948E-05   -0.36656E-06  2432   0.807E-03    0.964E-03
DAV:  10    -0.336519301026E+03    0.56707E-06   -0.14643E-06  2480   0.459E-03
  32 F= -.33651930E+03 E0= -.33639434E+03  d E =-.163624E-02
quench:  g(F)=  0.000E+00 g(S)=  0.000E+00 dE (1.order)= 0.000E+00
 bond charge predicted
       N       E                     dE             d eps       ncg     rms          rms(c)
DAV:   1    -0.336521067545E+03   -0.17660E-02   -0.35406E-02  4000   0.242E-01    0.501E-02
DAV:   2    -0.336521236544E+03   -0.16900E-03   -0.10257E-03  4312   0.591E-02    0.117E-01
DAV:   3    -0.336521212354E+03    0.24189E-04   -0.23669E-04  4264   0.670E-02    0.106E-01
DAV:   4    -0.336521172885E+03    0.39469E-04   -0.12910E-04  4232   0.511E-02    0.721E-02
DAV:   5    -0.336521151473E+03    0.21413E-04   -0.59407E-05  4288   0.323E-02    0.431E-02
DAV:   6    -0.336521144796E+03    0.66766E-05   -0.34187E-05  4304   0.231E-02    0.258E-02
DAV:   7    -0.336521145342E+03   -0.54573E-06   -0.14877E-05  4288   0.163E-02    0.214E-02
DAV:   8    -0.336521143468E+03    0.18740E-05   -0.93057E-06  3808   0.136E-02    0.142E-02
DAV:   9    -0.336521142389E+03    0.10794E-05   -0.36747E-06  2432   0.807E-03    0.969E-03
DAV:  10    -0.336521141828E+03    0.56079E-06   -0.15007E-06  2480   0.462E-03
  33 F= -.33652114E+03 E0= -.33639614E+03  d E =-.184080E-02
quench:  g(F)=  0.000E+00 g(S)=  0.000E+00 dE (1.order)= 0.000E+00
 bond charge predicted
       N       E                     dE             d eps       ncg     rms          rms(c)
DAV:   1    -0.336523108757E+03   -0.19664E-02   -0.37402E-02  4000   0.247E-01    0.510E-02
DAV:   2    -0.336523278612E+03   -0.16985E-03   -0.10682E-03  4336   0.590E-02    0.116E-01
DAV:   3    -0.336523262053E+03    0.16559E-04   -0.24103E-04  4264   0.676E-02    0.109E-01
DAV:   4    -0.336523220626E+03    0.41428E-04   -0.13492E-04  4232   0.522E-02    0.745E-02
DAV:   5    -0.336523196369E+03    0.24257E-04   -0.61330E-05  4280   0.329E-02    0.429E-02
DAV:   6    -0.336523189952E+03    0.64170E-05   -0.34335E-05  4304   0.231E-02    0.260E-02
DAV:   7    -0.336523190705E+03   -0.75357E-06   -0.15161E-05  4296   0.165E-02    0.218E-02
DAV:   8    -0.336523188617E+03    0.20887E-05   -0.94587E-06  3808   0.137E-02    0.142E-02
DAV:   9    -0.336523187555E+03    0.10619E-05   -0.36812E-06  2456   0.806E-03    0.976E-03
DAV:  10    -0.336523187002E+03    0.55251E-06   -0.15383E-06  2480   0.466E-03
  34 F= -.33652319E+03 E0= -.33639814E+03  d E =-.204517E-02
quench:  g(F)=  0.000E+00 g(S)=  0.000E+00 dE (1.order)= 0.000E+00
 bond charge predicted
       N       E                     dE             d eps       ncg     rms          rms(c)
DAV:   1    -0.336525352498E+03   -0.21649E-02   -0.39468E-02  4000   0.253E-01    0.518E-02
DAV:   2    -0.336525522843E+03   -0.17034E-03   -0.11128E-03  4336   0.589E-02    0.114E-01
DAV:   3    -0.336525515184E+03    0.76585E-05   -0.24533E-04  4256   0.682E-02    0.112E-01
DAV:   4    -0.336525471316E+03    0.43868E-04   -0.14120E-04  4224   0.535E-02    0.769E-02
DAV:   5    -0.336525443976E+03    0.27341E-04   -0.63398E-05  4312   0.336E-02    0.425E-02
DAV:   6    -0.336525437936E+03    0.60391E-05   -0.34547E-05  4320   0.231E-02    0.262E-02
DAV:   7    -0.336525438797E+03   -0.86064E-06   -0.15426E-05  4312   0.166E-02    0.221E-02
DAV:   8    -0.336525436539E+03    0.22583E-05   -0.95893E-06  3832   0.139E-02    0.142E-02
DAV:   9    -0.336525435490E+03    0.10485E-05   -0.36794E-06  2440   0.804E-03    0.981E-03
DAV:  10    -0.336525434948E+03    0.54282E-06   -0.15751E-06  2512   0.469E-03
  35 F= -.33652543E+03 E0= -.33640035E+03  d E =-.224795E-02
quench:  g(F)=  0.000E+00 g(S)=  0.000E+00 dE (1.order)= 0.000E+00
 bond charge predicted
       N       E                     dE             d eps       ncg     rms          rms(c)
DAV:   1    -0.336527794092E+03   -0.23586E-02   -0.41612E-02  4000   0.258E-01    0.527E-02
DAV:   2    -0.336527964583E+03   -0.17049E-03   -0.11577E-03  4336   0.587E-02    0.111E-01
DAV:   3    -0.336527966810E+03   -0.22273E-05   -0.24945E-04  4272   0.688E-02    0.116E-01
DAV:   4    -0.336527920019E+03    0.46791E-04   -0.14769E-04  4224   0.547E-02    0.794E-02
DAV:   5    -0.336527889436E+03    0.30583E-04   -0.65482E-05  4328   0.343E-02    0.420E-02
DAV:   6    -0.336527883914E+03    0.55224E-05   -0.34813E-05  4304   0.231E-02    0.266E-02
DAV:   7    -0.336527884778E+03   -0.86398E-06   -0.15652E-05  4304   0.167E-02    0.223E-02
DAV:   8    -0.336527882391E+03    0.23863E-05   -0.96892E-06  3816   0.140E-02    0.141E-02
DAV:   9    -0.336527881358E+03    0.10333E-05   -0.36678E-06  2448   0.801E-03    0.985E-03
DAV:  10    -0.336527880828E+03    0.53056E-06   -0.16105E-06  2528   0.471E-03
  36 F= -.33652788E+03 E0= -.33640276E+03  d E =-.244588E-02
quench:  g(F)=  0.000E+00 g(S)=  0.000E+00 dE (1.order)= 0.000E+00
 bond charge predicted
       N       E                     dE             d eps       ncg     rms          rms(c)
DAV:   1    -0.336530429691E+03   -0.25483E-02   -0.43837E-02  4000   0.264E-01    0.536E-02
DAV:   2    -0.336530599949E+03   -0.17026E-03   -0.12034E-03  4344   0.584E-02    0.108E-01
DAV:   3    -0.336530613279E+03   -0.13330E-04   -0.25351E-04  4288   0.694E-02    0.120E-01
DAV:   4    -0.336530562834E+03    0.50444E-04   -0.15431E-04  4240   0.559E-02    0.818E-02
DAV:   5    -0.336530528985E+03    0.33849E-04   -0.67512E-05  4328   0.349E-02    0.415E-02
DAV:   6    -0.336530524099E+03    0.48863E-05   -0.35187E-05  4304   0.232E-02    0.271E-02
DAV:   7    -0.336530524822E+03   -0.72271E-06   -0.15858E-05  4336   0.168E-02    0.224E-02
DAV:   8    -0.336530522374E+03    0.24476E-05   -0.97586E-06  3808   0.141E-02    0.141E-02
DAV:   9    -0.336530521342E+03    0.10319E-05   -0.36566E-06  2464   0.798E-03    0.988E-03
DAV:  10    -0.336530520829E+03    0.51357E-06   -0.16438E-06  2560   0.473E-03
  37 F= -.33653052E+03 E0= -.33640537E+03  d E =-.264000E-02
quench:  g(F)=  0.000E+00 g(S)=  0.000E+00 dE (1.order)= 0.000E+00
 bond charge predicted
       N       E                     dE             d eps       ncg     rms          rms(c)
DAV:   1    -0.336533251723E+03   -0.27304E-02   -0.46148E-02  4000   0.270E-01    0.545E-02
DAV:   2    -0.336533421827E+03   -0.17010E-03   -0.12516E-03  4352   0.581E-02    0.105E-01
DAV:   3    -0.336533447210E+03   -0.25383E-04   -0.25769E-04  4280   0.700E-02    0.124E-01
DAV:   4    -0.336533392284E+03    0.54926E-04   -0.16111E-04  4240   0.572E-02    0.840E-02
DAV:   5    -0.336533355213E+03    0.37071E-04   -0.69561E-05  4328   0.356E-02    0.409E-02
DAV:   6    -0.336533351091E+03    0.41220E-05   -0.35688E-05  4296   0.233E-02    0.279E-02
DAV:   7    -0.336533351511E+03   -0.41990E-06   -0.16059E-05  4376   0.169E-02    0.222E-02
DAV:   8    -0.336533349092E+03    0.24188E-05   -0.98055E-06  3800   0.141E-02    0.142E-02
DAV:   9    -0.336533348041E+03    0.10515E-05   -0.36558E-06  2448   0.797E-03    0.991E-03
DAV:  10    -0.336533347547E+03    0.49375E-06   -0.16822E-06  2560   0.474E-03
  38 F= -.33653335E+03 E0= -.33640817E+03  d E =-.282672E-02
quench:  g(F)=  0.000E+00 g(S)=  0.000E+00 dE (1.order)= 0.000E+00
 bond charge predicted
       N       E                     dE             d eps       ncg     rms          rms(c)
DAV:   1    -0.336536251680E+03   -0.29036E-02   -0.48547E-02  4016   0.276E-01    0.554E-02
DAV:   2    -0.336536421901E+03   -0.17022E-03   -0.13044E-03  4344   0.578E-02    0.102E-01
DAV:   3    -0.336536460478E+03   -0.38577E-04   -0.26247E-04  4296   0.706E-02    0.129E-01
DAV:   4    -0.336536399907E+03    0.60571E-04   -0.16793E-04  4248   0.584E-02    0.861E-02
DAV:   5    -0.336536359774E+03    0.40133E-04   -0.71466E-05  4376   0.361E-02    0.402E-02
DAV:   6    -0.336536356568E+03    0.32060E-05   -0.36283E-05  4312   0.234E-02    0.288E-02
DAV:   7    -0.336536356552E+03    0.15978E-07   -0.16304E-05  4400   0.170E-02    0.220E-02
DAV:   8    -0.336536354206E+03    0.23458E-05   -0.98291E-06  3784   0.141E-02    0.144E-02
DAV:   9    -0.336536353115E+03    0.10914E-05   -0.36580E-06  2480   0.796E-03    0.988E-03
DAV:  10    -0.336536352646E+03    0.46870E-06   -0.17148E-06  2576   0.474E-03
  39 F= -.33653635E+03 E0= -.33641114E+03  d E =-.300510E-02
quench:  g(F)=  0.000E+00 g(S)=  0.000E+00 dE (1.order)= 0.000E+00
 bond charge predicted
       N       E                     dE             d eps       ncg     rms          rms(c)
DAV:   1    -0.336539420857E+03   -0.30677E-02   -0.51037E-02  4016   0.282E-01    0.563E-02
DAV:   2    -0.336539591063E+03   -0.17021E-03   -0.13589E-03  4384   0.574E-02    0.986E-02
DAV:   3    -0.336539644477E+03   -0.53415E-04   -0.26713E-04  4312   0.713E-02    0.134E-01
DAV:   4    -0.336539576554E+03    0.67923E-04   -0.17494E-04  4264   0.597E-02    0.879E-02
DAV:   5    -0.336539533708E+03    0.42846E-04   -0.73261E-05  4424   0.366E-02    0.394E-02
DAV:   6    -0.336539531604E+03    0.21044E-05   -0.37096E-05  4304   0.236E-02    0.300E-02
DAV:   7    -0.336539530846E+03    0.75747E-06   -0.16647E-05  4480   0.172E-02    0.215E-02
DAV:   8    -0.336539528739E+03    0.21069E-05   -0.98504E-06  3784   0.141E-02    0.147E-02
DAV:   9    -0.336539527555E+03    0.11847E-05   -0.37064E-06  2504   0.801E-03    0.984E-03
DAV:  10    -0.336539527118E+03    0.43659E-06   -0.17631E-06  2592   0.476E-03
  40 F= -.33653953E+03 E0= -.33641429E+03  d E =-.317447E-02
quench:  g(F)=  0.000E+00 g(S)=  0.000E+00 dE (1.order)= 0.000E+00
 bond charge predicted
       N       E                     dE             d eps       ncg     rms          rms(c)
DAV:   1    -0.336542749536E+03   -0.32220E-02   -0.53617E-02  4016   0.288E-01    0.572E-02
DAV:   2    -0.336542920506E+03   -0.17097E-03   -0.14193E-03  4408   0.571E-02    0.951E-02
DAV:   3    -0.336542989671E+03   -0.69165E-04   -0.27269E-04  4320   0.721E-02    0.139E-01
DAV:   4    -0.336542912780E+03    0.76892E-04   -0.18210E-04  4280   0.609E-02    0.894E-02
DAV:   5    -0.336542867672E+03    0.45107E-04   -0.74934E-05  4480   0.371E-02    0.385E-02
DAV:   6    -0.336542866850E+03    0.82236E-06   -0.38067E-05  4312   0.238E-02    0.315E-02
DAV:   7    -0.336542865102E+03    0.17480E-05   -0.17169E-05  4608   0.174E-02    0.209E-02
DAV:   8    -0.336542863329E+03    0.17728E-05   -0.98519E-06  3784   0.140E-02    0.152E-02
DAV:   9    -0.336542862008E+03    0.13214E-05   -0.37984E-06  2536   0.813E-03    0.976E-03
DAV:  10    -0.336542861612E+03    0.39579E-06   -0.18211E-06  2648   0.477E-03
  41 F= -.33654286E+03 E0= -.33641760E+03  d E =-.333449E-02
quench:  g(F)=  0.000E+00 g(S)=  0.000E+00 dE (1.order)= 0.000E+00
 bond charge predicted
       N       E                     dE             d eps       ncg     rms          rms(c)
DAV:   1    -0.336546226292E+03   -0.33643E-02   -0.56290E-02  4032   0.295E-01    0.581E-02
DAV:   2    -0.336546398565E+03   -0.17227E-03   -0.14837E-03  4416   0.568E-02    0.916E-02
DAV:   3    -0.336546483892E+03   -0.85328E-04   -0.27846E-04  4352   0.728E-02    0.145E-01
DAV:   4    -0.336546396540E+03    0.87352E-04   -0.18843E-04  4312   0.620E-02    0.902E-02
DAV:   5    -0.336546350173E+03    0.46367E-04   -0.76295E-05  4552   0.374E-02    0.376E-02
DAV:   6    -0.336546350883E+03   -0.70952E-06   -0.39388E-05  4328   0.242E-02    0.335E-02
DAV:   7    -0.336546347737E+03    0.31455E-05   -0.18088E-05  4720   0.178E-02    0.200E-02
DAV:   8    -0.336546346410E+03    0.13272E-05   -0.98099E-06  3776   0.139E-02    0.158E-02
DAV:   9    -0.336546344910E+03    0.14995E-05   -0.39486E-06  2624   0.830E-03    0.960E-03
DAV:  10    -0.336546344565E+03    0.34554E-06   -0.18583E-06  2616   0.478E-03
  42 F= -.33654634E+03 E0= -.33642106E+03  d E =-.348295E-02
quench:  g(F)=  0.000E+00 g(S)=  0.000E+00 dE (1.order)= 0.000E+00
 bond charge predicted
       N       E                     dE             d eps       ncg     rms          rms(c)
DAV:   1    -0.336549841361E+03   -0.34965E-02   -0.59067E-02  4048   0.302E-01    0.587E-02
DAV:   2    -0.336550014422E+03   -0.17306E-03   -0.15384E-03  4408   0.564E-02    0.883E-02
DAV:   3    -0.336550113163E+03   -0.98742E-04   -0.28144E-04  4344   0.732E-02    0.149E-01
DAV:   4    -0.336550016403E+03    0.96761E-04   -0.19198E-04  4320   0.625E-02    0.901E-02
DAV:   5    -0.336549970250E+03    0.46152E-04   -0.77223E-05  4600   0.374E-02    0.369E-02
DAV:   6    -0.336549972665E+03   -0.24143E-05   -0.41136E-05  4304   0.248E-02    0.359E-02
DAV:   7    -0.336549967694E+03    0.49702E-05   -0.19442E-05  4800   0.183E-02    0.190E-02
DAV:   8    -0.336549966911E+03    0.78378E-06   -0.96543E-06  3784   0.137E-02
  43 F= -.33654997E+03 E0= -.33642466E+03  d E =-.362235E-02
quench:  g(F)=  0.000E+00 g(S)=  0.000E+00 dE (1.order)= 0.000E+00
 bond charge predicted
       N       E                     dE             d eps       ncg     rms          rms(c)
DAV:   1    -0.336553579953E+03   -0.36123E-02   -0.61933E-02  4064   0.308E-01    0.617E-02
DAV:   2    -0.336553785118E+03   -0.20516E-03   -0.16410E-03  4408   0.638E-02    0.108E-01
DAV:   3    -0.336553846399E+03   -0.61281E-04   -0.32347E-04  4360   0.774E-02    0.145E-01
DAV:   4    -0.336553788459E+03    0.57940E-04   -0.23811E-04  4288   0.680E-02    0.112E-01
DAV:   5    -0.336553717038E+03    0.71422E-04   -0.11434E-04  4352   0.434E-02    0.418E-02
DAV:   6    -0.336553712521E+03    0.45168E-05   -0.35977E-05  4400   0.253E-02    0.292E-02
DAV:   7    -0.336553716302E+03   -0.37813E-05   -0.21295E-05  4416   0.205E-02    0.313E-02
DAV:   8    -0.336553709708E+03    0.65939E-05   -0.13876E-05  4072   0.173E-02    0.148E-02
DAV:   9    -0.336553709054E+03    0.65492E-06   -0.48025E-06  2760   0.901E-03
  44 F= -.33655371E+03 E0= -.33642838E+03  d E =-.374214E-02
quench:  g(F)=  0.000E+00 g(S)=  0.000E+00 dE (1.order)= 0.000E+00
 bond charge predicted
       N       E                     dE             d eps       ncg     rms          rms(c)
DAV:   1    -0.336557429608E+03   -0.37199E-02   -0.64893E-02  4048   0.314E-01    0.614E-02
DAV:   2    -0.336557605935E+03   -0.17633E-03   -0.16527E-03  4416   0.566E-02    0.834E-02
DAV:   3    -0.336557748640E+03   -0.14270E-03   -0.30458E-04  4400   0.767E-02    0.166E-01
DAV:   4    -0.336557611514E+03    0.13713E-03   -0.22138E-04  4336   0.663E-02    0.867E-02
DAV:   5    -0.336557566610E+03    0.44904E-04   -0.78782E-05  4544   0.376E-02    0.327E-02
DAV:   6    -0.336557575311E+03   -0.87003E-05   -0.43673E-05  4352   0.257E-02    0.435E-02
DAV:   7    -0.336557567763E+03    0.75473E-05   -0.27470E-05  4688   0.216E-02    0.240E-02
DAV:   8    -0.336557565535E+03    0.22285E-05   -0.12123E-05  3960   0.152E-02    0.173E-02
DAV:   9    -0.336557563870E+03    0.16650E-05   -0.46703E-06  2816   0.940E-03    0.947E-03
DAV:  10    -0.336557563488E+03    0.38218E-06   -0.17720E-06  2664   0.523E-03
  45 F= -.33655756E+03 E0= -.33643223E+03  d E =-.385443E-02
quench:  g(F)=  0.000E+00 g(S)=  0.000E+00 dE (1.order)= 0.000E+00
 bond charge predicted
       N       E                     dE             d eps       ncg     rms          rms(c)
DAV:   1    -0.336561376937E+03   -0.38131E-02   -0.67937E-02  4048   0.321E-01    0.628E-02
DAV:   2    -0.336561571886E+03   -0.19495E-03   -0.17316E-03  4392   0.608E-02    0.949E-02
DAV:   3    -0.336561671507E+03   -0.99621E-04   -0.31512E-04  4352   0.764E-02    0.154E-01
DAV:   4    -0.336561609446E+03    0.62061E-04   -0.24813E-04  4312   0.705E-02    0.121E-01
DAV:   5    -0.336561521005E+03    0.88441E-04   -0.11622E-04  4544   0.450E-02    0.374E-02
DAV:   6    -0.336561522752E+03   -0.17467E-05   -0.42589E-05  4320   0.265E-02    0.349E-02
DAV:   7    -0.336561518335E+03    0.44163E-05   -0.20520E-05  4848   0.190E-02    0.210E-02
DAV:   8    -0.336561517825E+03    0.51041E-06   -0.12506E-05  3888   0.150E-02    0.196E-02
DAV:   9    -0.336561515801E+03    0.20243E-05   -0.62430E-06  2968   0.991E-03    0.116E-02
DAV:  10    -0.336561515174E+03    0.62651E-06   -0.22777E-06  2648   0.567E-03
  46 F= -.33656152E+03 E0= -.33643617E+03  d E =-.395169E-02
quench:  g(F)=  0.000E+00 g(S)=  0.000E+00 dE (1.order)= 0.000E+00
 bond charge predicted
       N       E                     dE             d eps       ncg     rms          rms(c)
DAV:   1    -0.336565405376E+03   -0.38896E-02   -0.71058E-02  4048   0.327E-01    0.631E-02
DAV:   2    -0.336565581171E+03   -0.17580E-03   -0.17679E-03  4400   0.555E-02    0.740E-02
DAV:   3    -0.336565770416E+03   -0.18924E-03   -0.32037E-04  4424   0.787E-02    0.180E-01
DAV:   4    -0.336565607095E+03    0.16332E-03   -0.25328E-04  4424   0.708E-02    0.964E-02
DAV:   5    -0.336565553937E+03    0.53158E-04   -0.90806E-05  4584   0.399E-02    0.360E-02
DAV:   6    -0.336565562627E+03   -0.86899E-05   -0.46681E-05  4336   0.273E-02    0.447E-02
DAV:   7    -0.336565551319E+03    0.11308E-04   -0.27034E-05  4640   0.219E-02    0.181E-02
DAV:   8    -0.336565552014E+03   -0.69504E-06   -0.10609E-05  3984   0.141E-02    0.199E-02
DAV:   9    -0.336565549206E+03    0.28078E-05   -0.43493E-06  2680   0.943E-03    0.818E-03
DAV:  10    -0.336565549303E+03   -0.97665E-07   -0.20365E-06  2792   0.509E-03
  47 F= -.33656555E+03 E0= -.33644020E+03  d E =-.403413E-02
quench:  g(F)=  0.000E+00 g(S)=  0.000E+00 dE (1.order)= 0.000E+00
 bond charge predicted
       N       E                     dE             d eps       ncg     rms          rms(c)
DAV:   1    -0.336569500808E+03   -0.39516E-02   -0.74251E-02  4048   0.334E-01    0.643E-02
DAV:   2    -0.336569684289E+03   -0.18348E-03   -0.18380E-03  4400   0.569E-02    0.761E-02
DAV:   3    -0.336569873738E+03   -0.18945E-03   -0.32966E-04  4464   0.795E-02    0.182E-01
DAV:   4    -0.336569713177E+03    0.16056E-03   -0.26295E-04  4464   0.721E-02    0.100E-01
DAV:   5    -0.336569652801E+03    0.60376E-04   -0.93292E-05  4632   0.409E-02    0.333E-02
DAV:   6    -0.336569667037E+03   -0.14236E-04   -0.48387E-05  4352   0.282E-02    0.503E-02
DAV:   7    -0.336569652545E+03    0.14492E-04   -0.29929E-05  4704   0.234E-02    0.201E-02
DAV:   8    -0.336569653311E+03   -0.76595E-06   -0.12644E-05  3920   0.152E-02    0.221E-02
DAV:   9    -0.336569649574E+03    0.37370E-05   -0.59555E-06  3112   0.105E-02    0.628E-03
DAV:  10    -0.336569649885E+03   -0.31176E-06   -0.17191E-06  2584   0.484E-03
  48 F= -.33656965E+03 E0= -.33644429E+03  d E =-.410058E-02
quench:  g(F)=  0.000E+00 g(S)=  0.000E+00 dE (1.order)= 0.000E+00
 bond charge predicted
       N       E                     dE             d eps       ncg     rms          rms(c)
DAV:   1    -0.336573645499E+03   -0.39959E-02   -0.77502E-02  4048   0.341E-01    0.652E-02
DAV:   2    -0.336573825474E+03   -0.17997E-03   -0.18971E-03  4408   0.550E-02    0.683E-02
DAV:   3    -0.336574066457E+03   -0.24098E-03   -0.34363E-04  4512   0.815E-02    0.197E-01
DAV:   4    -0.336573845200E+03    0.22126E-03   -0.27293E-04  4552   0.732E-02    0.887E-02
DAV:   5    -0.336573805979E+03    0.39221E-04   -0.92866E-05  4544   0.388E-02    0.374E-02
DAV:   6    -0.336573815843E+03   -0.98635E-05   -0.48463E-05  4328   0.285E-02    0.469E-02
DAV:   7    -0.336573802160E+03    0.13683E-04   -0.29281E-05  4712   0.235E-02    0.188E-02
DAV:   8    -0.336573802364E+03   -0.20433E-06   -0.10089E-05  3864   0.134E-02    0.188E-02
DAV:   9    -0.336573799994E+03    0.23701E-05   -0.50560E-06  2912   0.972E-03    0.821E-03
DAV:  10    -0.336573800101E+03   -0.10670E-06   -0.17240E-06  2360   0.516E-03
  49 F= -.33657380E+03 E0= -.33644844E+03  d E =-.415022E-02
quench:  g(F)=  0.000E+00 g(S)=  0.000E+00 dE (1.order)= 0.000E+00
 bond charge predicted
       N       E                     dE             d eps       ncg     rms          rms(c)
DAV:   1    -0.336577824005E+03   -0.40240E-02   -0.80813E-02  4064   0.347E-01    0.665E-02
DAV:   2    -0.336578015092E+03   -0.19109E-03   -0.19753E-03  4384   0.575E-02    0.745E-02
DAV:   3    -0.336578208860E+03   -0.19377E-03   -0.34131E-04  4424   0.792E-02    0.183E-01
DAV:   4    -0.336578070605E+03    0.13826E-03   -0.28758E-04  4496   0.753E-02    0.117E-01
DAV:   5    -0.336577988603E+03    0.82002E-04   -0.12377E-04  4536   0.456E-02    0.360E-02
DAV:   6    -0.336577999857E+03   -0.11254E-04   -0.49924E-05  4272   0.292E-02    0.468E-02
DAV:   7    -0.336577985535E+03    0.14322E-04   -0.32546E-05  4656   0.245E-02    0.189E-02
DAV:   8    -0.336577986562E+03   -0.10277E-05   -0.11330E-05  4008   0.142E-02    0.213E-02
DAV:   9    -0.336577983720E+03    0.28425E-05   -0.59092E-06  2992   0.105E-02    0.997E-03
DAV:  10    -0.336577983596E+03    0.12410E-06   -0.23276E-06  2656   0.565E-03
  50 F= -.33657798E+03 E0= -.33645262E+03  d E =-.418350E-02
quench:  g(F)=  0.000E+00 g(S)=  0.000E+00 dE (1.order)= 0.000E+00
 bond charge predicted
       N       E                     dE             d eps       ncg     rms          rms(c)
DAV:   1    -0.336582018206E+03   -0.40345E-02   -0.84163E-02  4064   0.354E-01    0.676E-02
DAV:   2    -0.336582203516E+03   -0.18531E-03   -0.20342E-03  4368   0.558E-02    0.623E-02
DAV:   3    -0.336582445540E+03   -0.24202E-03   -0.34003E-04  4504   0.799E-02    0.196E-01
DAV:   4    -0.336582246799E+03    0.19874E-03   -0.29641E-04  4544   0.763E-02    0.102E-01
DAV:   5    -0.336582187775E+03    0.59024E-04   -0.10034E-04  4608   0.428E-02    0.371E-02
DAV:   6    -0.336582203743E+03   -0.15968E-04   -0.56068E-05  4360   0.299E-02    0.545E-02
DAV:   7    -0.336582186166E+03    0.17577E-04   -0.38136E-05  4720   0.261E-02    0.218E-02
DAV:   8    -0.336582186707E+03   -0.54099E-06   -0.14507E-05  4040   0.160E-02    0.229E-02
DAV:   9    -0.336582182891E+03    0.38162E-05   -0.69379E-06  3216   0.112E-02    0.753E-03
DAV:  10    -0.336582183151E+03   -0.25932E-06   -0.20380E-06  2592   0.542E-03
  51 F= -.33658218E+03 E0= -.33645681E+03  d E =-.419955E-02
quench:  g(F)=  0.000E+00 g(S)=  0.000E+00 dE (1.order)= 0.000E+00
 bond charge predicted
       N       E                     dE             d eps       ncg     rms          rms(c)
DAV:   1    -0.336586210313E+03   -0.40274E-02   -0.87547E-02  4064   0.361E-01    0.684E-02
DAV:   2    -0.336586396025E+03   -0.18571E-03   -0.20889E-03  4376   0.549E-02    0.593E-02
DAV:   3    -0.336586637260E+03   -0.24124E-03   -0.32829E-04  4576   0.783E-02    0.194E-01
DAV:   4    -0.336586441596E+03    0.19566E-03   -0.29339E-04  4584   0.758E-02    0.101E-01
DAV:   5    -0.336586388268E+03    0.53328E-04   -0.11580E-04  4400   0.438E-02    0.433E-02
DAV:   6    -0.336586397285E+03   -0.90179E-05   -0.51891E-05  4400   0.304E-02    0.487E-02
DAV:   7    -0.336586381447E+03    0.15838E-04   -0.34869E-05  4616   0.259E-02    0.202E-02
DAV:   8    -0.336586381323E+03    0.12430E-06   -0.11684E-05  4016   0.134E-02    0.191E-02
DAV:   9    -0.336586379732E+03    0.15908E-05   -0.66314E-06  3160   0.103E-02    0.122E-02
DAV:  10    -0.336586379189E+03    0.54294E-06   -0.24371E-06  2376   0.606E-03
  52 F= -.33658638E+03 E0= -.33646102E+03  d E =-.419604E-02
quench:  g(F)=  0.000E+00 g(S)=  0.000E+00 dE (1.order)= 0.000E+00
 bond charge predicted
       N       E                     dE             d eps       ncg     rms          rms(c)
DAV:   1    -0.336590381128E+03   -0.40014E-02   -0.90979E-02  4032   0.367E-01    0.696E-02
DAV:   2    -0.336590564760E+03   -0.18363E-03   -0.21278E-03  4376   0.546E-02    0.537E-02
DAV:   3    -0.336590758814E+03   -0.19405E-03   -0.27978E-04  4576   0.707E-02    0.175E-01
DAV:   4    -0.336590610444E+03    0.14837E-03   -0.26136E-04  4528   0.710E-02    0.958E-02
DAV:   5    -0.336590564175E+03    0.46269E-04   -0.11127E-04  4416   0.445E-02    0.481E-02
DAV:   6    -0.336590572901E+03   -0.87259E-05   -0.61593E-05  4392   0.312E-02    0.542E-02
DAV:   7    -0.336590555362E+03    0.17539E-04   -0.41055E-05  4560   0.268E-02    0.222E-02
DAV:   8    -0.336590555658E+03   -0.29572E-06   -0.15128E-05  4112   0.161E-02    0.225E-02
DAV:   9    -0.336590552248E+03    0.34095E-05   -0.73040E-06  3416   0.114E-02    0.885E-03
DAV:  10    -0.336590552356E+03   -0.10799E-06   -0.21362E-06  2392   0.577E-03
  53 F= -.33659055E+03 E0= -.33646520E+03  d E =-.417317E-02
quench:  g(F)=  0.000E+00 g(S)=  0.000E+00 dE (1.order)= 0.000E+00
 bond charge predicted
       N       E                     dE             d eps       ncg     rms          rms(c)
DAV:   1    -0.336594508786E+03   -0.39565E-02   -0.94392E-02  4032   0.374E-01    0.708E-02
DAV:   2    -0.336594697514E+03   -0.18873E-03   -0.21750E-03  4368   0.553E-02    0.581E-02
DAV:   3    -0.336594826867E+03   -0.12935E-03   -0.26647E-04  4584   0.656E-02    0.148E-01
DAV:   4    -0.336594771318E+03    0.55549E-04   -0.24844E-04  4672   0.679E-02    0.115E-01
DAV:   5    -0.336594695043E+03    0.76275E-04   -0.13560E-04  4384   0.495E-02    0.518E-02
DAV:   6    -0.336594700977E+03   -0.59340E-05   -0.52029E-05  4504   0.309E-02    0.498E-02
DAV:   7    -0.336594684452E+03    0.16525E-04   -0.39119E-05  4376   0.268E-02    0.211E-02
DAV:   8    -0.336594685050E+03   -0.59811E-06   -0.13719E-05  4040   0.150E-02    0.208E-02
DAV:   9    -0.336594682133E+03    0.29168E-05   -0.67763E-06  3424   0.109E-02    0.866E-03
DAV:  10    -0.336594682327E+03   -0.19313E-06   -0.20759E-06  2408   0.547E-03
  54 F= -.33659468E+03 E0= -.33646934E+03  d E =-.412997E-02
quench:  g(F)=  0.000E+00 g(S)=  0.000E+00 dE (1.order)= 0.000E+00
 bond charge predicted
       N       E                     dE             d eps       ncg     rms          rms(c)
DAV:   1    -0.336598572500E+03   -0.38904E-02   -0.97800E-02  4032   0.380E-01    0.723E-02
DAV:   2    -0.336598764679E+03   -0.19218E-03   -0.22215E-03  4368   0.566E-02    0.600E-02
DAV:   3    -0.336598881008E+03   -0.11633E-03   -0.28326E-04  4520   0.649E-02    0.144E-01
DAV:   4    -0.336598814186E+03    0.66822E-04   -0.23266E-04  4648   0.627E-02    0.997E-02
DAV:   5    -0.336598770574E+03    0.43612E-04   -0.12682E-04  4288   0.486E-02    0.634E-02
DAV:   6    -0.336598766042E+03    0.45324E-05   -0.56690E-05  4440   0.330E-02    0.496E-02
DAV:   7    -0.336598750775E+03    0.15267E-04   -0.37223E-05  4528   0.271E-02    0.225E-02
DAV:   8    -0.336598751178E+03   -0.40347E-06   -0.14608E-05  4112   0.157E-02    0.224E-02
DAV:   9    -0.336598747973E+03    0.32048E-05   -0.76575E-06  3496   0.115E-02    0.956E-03
DAV:  10    -0.336598748005E+03   -0.31694E-07   -0.20852E-06  2376   0.584E-03
  55 F= -.33659875E+03 E0= -.33647341E+03  d E =-.406568E-02
quench:  g(F)=  0.000E+00 g(S)=  0.000E+00 dE (1.order)= 0.000E+00
 bond charge predicted
       N       E                     dE             d eps       ncg     rms          rms(c)
DAV:   1    -0.336602549030E+03   -0.38011E-02   -0.10117E-01  4016   0.386E-01    0.733E-02
DAV:   2    -0.336602741950E+03   -0.19292E-03   -0.22624E-03  4376   0.558E-02    0.586E-02
DAV:   3    -0.336602857738E+03   -0.11579E-03   -0.23458E-04  4664   0.628E-02    0.139E-01
DAV:   4    -0.336602815732E+03    0.42007E-04   -0.24185E-04  4584   0.679E-02    0.115E-01
DAV:   5    -0.336602745986E+03    0.69746E-04   -0.15050E-04  4384   0.522E-02    0.605E-02
DAV:   6    -0.336602749915E+03   -0.39288E-05   -0.62903E-05  4568   0.339E-02    0.571E-02
DAV:   7    -0.336602729821E+03    0.20093E-04   -0.45501E-05  4296   0.287E-02    0.250E-02
DAV:   8    -0.336602730035E+03   -0.21409E-06   -0.18203E-05  4152   0.176E-02    0.226E-02
DAV:   9    -0.336602726470E+03    0.35653E-05   -0.75823E-06  3608   0.120E-02    0.875E-03
DAV:  10    -0.336602726605E+03   -0.13503E-06   -0.21700E-06  2496   0.582E-03
  56 F= -.33660273E+03 E0= -.33647741E+03  d E =-.397860E-02
quench:  g(F)=  0.000E+00 g(S)=  0.000E+00 dE (1.order)= 0.000E+00
 bond charge predicted
       N       E                     dE             d eps       ncg     rms          rms(c)
DAV:   1    -0.336606419722E+03   -0.36933E-02   -0.10447E-01  4000   0.392E-01    0.750E-02
DAV:   2    -0.336606620707E+03   -0.20099E-03   -0.23204E-03  4368   0.583E-02    0.663E-02
DAV:   3    -0.336606725352E+03   -0.10464E-03   -0.31008E-04  4496   0.657E-02    0.140E-01
DAV:   4    -0.336606631736E+03    0.93617E-04   -0.22207E-04  4560   0.587E-02    0.734E-02
DAV:   5    -0.336606657453E+03   -0.25717E-04   -0.11562E-04  4392   0.488E-02    0.949E-02
DAV:   6    -0.336606616851E+03    0.40601E-04   -0.10111E-04  4496   0.414E-02    0.495E-02
DAV:   7    -0.336606600944E+03    0.15908E-04   -0.36981E-05  4216   0.273E-02    0.206E-02
DAV:   8    -0.336606602026E+03   -0.10819E-05   -0.14603E-05  4072   0.156E-02    0.219E-02
DAV:   9    -0.336606599449E+03    0.25762E-05   -0.86006E-06  3536   0.116E-02    0.119E-02
DAV:  10    -0.336606599103E+03    0.34583E-06   -0.24965E-06  2392   0.620E-03
  57 F= -.33660660E+03 E0= -.33648130E+03  d E =-.387250E-02
quench:  g(F)=  0.000E+00 g(S)=  0.000E+00 dE (1.order)= 0.000E+00
 bond charge predicted
       N       E                     dE             d eps       ncg     rms          rms(c)
DAV:   1    -0.336610159515E+03   -0.35601E-02   -0.10770E-01  4000   0.397E-01    0.761E-02
DAV:   2    -0.336610352406E+03   -0.19289E-03   -0.23541E-03  4376   0.550E-02    0.538E-02
DAV:   3    -0.336610396956E+03   -0.44549E-04   -0.15791E-04  5368   0.442E-02    0.885E-02
DAV:   4    -0.336610433190E+03   -0.36234E-04   -0.21081E-04  4408   0.609E-02    0.119E-01
DAV:   5    -0.336610373039E+03    0.60151E-04   -0.12939E-04  4416   0.524E-02    0.749E-02
DAV:   6    -0.336610366767E+03    0.62721E-05   -0.95736E-05  4440   0.382E-02    0.613E-02
DAV:   7    -0.336610342399E+03    0.24368E-04   -0.51906E-05  4288   0.290E-02    0.202E-02
DAV:   8    -0.336610343203E+03   -0.80343E-06   -0.13233E-05  4088   0.152E-02    0.195E-02
DAV:   9    -0.336610340705E+03    0.24977E-05   -0.61152E-06  3488   0.111E-02    0.863E-03
DAV:  10    -0.336610340846E+03   -0.14108E-06   -0.18583E-06  2360   0.561E-03
  58 F= -.33661034E+03 E0= -.33648506E+03  d E =-.374174E-02
quench:  g(F)=  0.000E+00 g(S)=  0.000E+00 dE (1.order)= 0.000E+00
 bond charge predicted
       N       E                     dE             d eps       ncg     rms          rms(c)
DAV:   1    -0.336613745745E+03   -0.34050E-02   -0.11082E-01  4000   0.403E-01    0.777E-02
DAV:   2    -0.336613950141E+03   -0.20440E-03   -0.24211E-03  4384   0.577E-02    0.658E-02
DAV:   3    -0.336614035665E+03   -0.85525E-04   -0.23277E-04  4640   0.607E-02    0.126E-01
DAV:   4    -0.336614007090E+03    0.28575E-04   -0.23706E-04  4512   0.654E-02    0.109E-01
DAV:   5    -0.336613977109E+03    0.29981E-04   -0.16682E-04  4336   0.565E-02    0.885E-02
DAV:   6    -0.336613954691E+03    0.22418E-04   -0.99202E-05  4416   0.420E-02    0.610E-02
DAV:   7    -0.336613932884E+03    0.21808E-04   -0.50110E-05  4248   0.310E-02    0.262E-02
DAV:   8    -0.336613932848E+03    0.36147E-07   -0.21032E-05  4160   0.196E-02    0.234E-02
DAV:   9    -0.336613929732E+03    0.31156E-05   -0.89342E-06  3680   0.130E-02    0.133E-02
DAV:  10    -0.336613929112E+03    0.62036E-06   -0.34146E-06  2552   0.729E-03
  59 F= -.33661393E+03 E0= -.33648868E+03  d E =-.358827E-02
quench:  g(F)=  0.000E+00 g(S)=  0.000E+00 dE (1.order)= 0.000E+00
 bond charge predicted
       N       E                     dE             d eps       ncg     rms          rms(c)
DAV:   1    -0.336617162375E+03   -0.32326E-02   -0.11385E-01  4000   0.408E-01    0.794E-02
DAV:   2    -0.336617366135E+03   -0.20376E-03   -0.24470E-03  4360   0.585E-02    0.661E-02
DAV:   3    -0.336617501585E+03   -0.13545E-03   -0.30197E-04  4600   0.671E-02    0.150E-01
DAV:   4    -0.336617446075E+03    0.55510E-04   -0.30839E-04  4344   0.765E-02    0.126E-01
DAV:   5    -0.336617369188E+03    0.76887E-04   -0.16041E-04  4320   0.550E-02    0.694E-02
DAV:   6    -0.336617373177E+03   -0.39891E-05   -0.10030E-04  4288   0.395E-02    0.634E-02
DAV:   7    -0.336617346740E+03    0.26437E-04   -0.49064E-05  4240   0.316E-02    0.231E-02
DAV:   8    -0.336617348682E+03   -0.19420E-05   -0.21459E-05  4200   0.193E-02    0.259E-02
DAV:   9    -0.336617345000E+03    0.36819E-05   -0.11375E-05  3848   0.135E-02    0.140E-02
DAV:  10    -0.336617344360E+03    0.64070E-06   -0.32390E-06  2456   0.732E-03
  60 F= -.33661734E+03 E0= -.33649212E+03  d E =-.341525E-02
quench:  g(F)=  0.000E+00 g(S)=  0.000E+00 dE (1.order)= 0.000E+00
 bond charge predicted
       N       E                     dE             d eps       ncg     rms          rms(c)
DAV:   1    -0.336620383407E+03   -0.30384E-02   -0.11677E-01  4000   0.413E-01    0.809E-02
DAV:   2    -0.336620590473E+03   -0.20707E-03   -0.24671E-03  4352   0.592E-02    0.720E-02
DAV:   3    -0.336620671069E+03   -0.80596E-04   -0.24357E-04  4536   0.624E-02    0.122E-01
DAV:   4    -0.336620698018E+03   -0.26948E-04   -0.30321E-04  4408   0.751E-02    0.145E-01
DAV:   5    -0.336620586182E+03    0.11184E-03   -0.16455E-04  4368   0.594E-02    0.691E-02
DAV:   6    -0.336620596558E+03   -0.10377E-04   -0.10741E-04  4296   0.414E-02    0.704E-02
DAV:   7    -0.336620570557E+03    0.26001E-04   -0.69614E-05  4328   0.337E-02    0.353E-02
DAV:   8    -0.336620566741E+03    0.38157E-05   -0.27091E-05  4192   0.223E-02    0.242E-02
DAV:   9    -0.336620563414E+03    0.33268E-05   -0.89921E-06  3784   0.133E-02    0.116E-02
DAV:  10    -0.336620563104E+03    0.31001E-06   -0.31561E-06  2712   0.752E-03
  61 F= -.33662056E+03 E0= -.33649538E+03  d E =-.321874E-02
quench:  g(F)=  0.000E+00 g(S)=  0.000E+00 dE (1.order)= 0.000E+00
 bond charge predicted
       N       E                     dE             d eps       ncg     rms          rms(c)
DAV:   1    -0.336623387842E+03   -0.28244E-02   -0.11955E-01  4000   0.418E-01    0.828E-02
DAV:   2    -0.336623603626E+03   -0.21578E-03   -0.25010E-03  4368   0.623E-02    0.834E-02
DAV:   3    -0.336623780776E+03   -0.17715E-03   -0.40817E-04  4416   0.800E-02    0.177E-01
DAV:   4    -0.336623691298E+03    0.89478E-04   -0.38381E-04  4600   0.868E-02    0.142E-01
DAV:   5    -0.336623585158E+03    0.10614E-03   -0.19202E-04  4472   0.592E-02    0.673E-02
DAV:   6    -0.336623595003E+03   -0.98450E-05   -0.10870E-04  4328   0.413E-02    0.664E-02
DAV:   7    -0.336623569134E+03    0.25869E-04   -0.53978E-05  4224   0.337E-02    0.294E-02
DAV:   8    -0.336623569149E+03   -0.15803E-07   -0.25656E-05  4136   0.221E-02    0.269E-02
DAV:   9    -0.336623566088E+03    0.30618E-05   -0.12117E-05  3704   0.147E-02    0.178E-02
DAV:  10    -0.336623564563E+03    0.15246E-05   -0.45281E-06  2880   0.898E-03    0.848E-03
DAV:  11    -0.336623564817E+03   -0.25415E-06   -0.14894E-06  2296   0.506E-03
  62 F= -.33662356E+03 E0= -.33649840E+03  d E =-.300171E-02
quench:  g(F)=  0.000E+00 g(S)=  0.000E+00 dE (1.order)= 0.000E+00
 bond charge predicted
       N       E                     dE             d eps       ncg     rms          rms(c)
DAV:   1    -0.336626156378E+03   -0.25918E-02   -0.12222E-01  4000   0.423E-01    0.844E-02
DAV:   2    -0.336626365551E+03   -0.20917E-03   -0.25072E-03  4352   0.615E-02    0.802E-02
DAV:   3    -0.336626466473E+03   -0.10092E-03   -0.29832E-04  4480   0.685E-02    0.139E-01
DAV:   4    -0.336626486420E+03   -0.19947E-04   -0.36380E-04  4496   0.834E-02    0.156E-01
DAV:   5    -0.336626345088E+03    0.14133E-03   -0.18092E-04  4424   0.628E-02    0.618E-02
DAV:   6    -0.336626355372E+03   -0.10284E-04   -0.89027E-05  4280   0.407E-02    0.617E-02
DAV:   7    -0.336626336442E+03    0.18930E-04   -0.66537E-05  4256   0.334E-02    0.379E-02
DAV:   8    -0.336626333955E+03    0.24867E-05   -0.33215E-05  4288   0.227E-02    0.294E-02
DAV:   9    -0.336626329951E+03    0.40044E-05   -0.11967E-05  3896   0.151E-02    0.149E-02
DAV:  10    -0.336626328614E+03    0.13367E-05   -0.38492E-06  2856   0.886E-03    0.640E-03
DAV:  11    -0.336626329080E+03   -0.46630E-06   -0.12257E-06  2256   0.443E-03
  63 F= -.33662633E+03 E0= -.33650121E+03  d E =-.276426E-02
quench:  g(F)=  0.000E+00 g(S)=  0.000E+00 dE (1.order)= 0.000E+00
 bond charge predicted
       N       E                     dE             d eps       ncg     rms          rms(c)
DAV:   1    -0.336628669800E+03   -0.23412E-02   -0.12473E-01  4000   0.428E-01    0.863E-02
DAV:   2    -0.336628883691E+03   -0.21389E-03   -0.25288E-03  4360   0.632E-02    0.886E-02
DAV:   3    -0.336629009611E+03   -0.12592E-03   -0.34805E-04  4416   0.753E-02    0.159E-01
DAV:   4    -0.336628991170E+03    0.18441E-04   -0.39631E-04  4560   0.873E-02    0.154E-01
DAV:   5    -0.336628863148E+03    0.12802E-03   -0.19531E-04  4416   0.646E-02    0.750E-02
DAV:   6    -0.336628870304E+03   -0.71563E-05   -0.12641E-04  4240   0.443E-02    0.714E-02
DAV:   7    -0.336628849702E+03    0.20602E-04   -0.78884E-05  4264   0.366E-02    0.420E-02
DAV:   8    -0.336628840369E+03    0.93330E-05   -0.34101E-05  4144   0.255E-02    0.225E-02
DAV:   9    -0.336628839613E+03    0.75548E-06   -0.11959E-05  3896   0.151E-02    0.182E-02
DAV:  10    -0.336628837540E+03    0.20734E-05   -0.51640E-06  3008   0.102E-02    0.832E-03
DAV:  11    -0.336628837828E+03   -0.28829E-06   -0.17937E-06  2272   0.519E-03
  64 F= -.33662884E+03 E0= -.33650375E+03  d E =-.250875E-02
quench:  g(F)=  0.000E+00 g(S)=  0.000E+00 dE (1.order)= 0.000E+00
 bond charge predicted
       N       E                     dE             d eps       ncg     rms          rms(c)
DAV:   1    -0.336630915277E+03   -0.20777E-02   -0.12711E-01  4000   0.433E-01    0.884E-02
DAV:   2    -0.336631142281E+03   -0.22700E-03   -0.25625E-03  4376   0.668E-02    0.101E-01
DAV:   3    -0.336631322531E+03   -0.18025E-03   -0.46689E-04  4328   0.872E-02    0.189E-01
DAV:   4    -0.336631205251E+03    0.11728E-03   -0.44435E-04  4544   0.933E-02    0.143E-01
DAV:   5    -0.336631101332E+03    0.10392E-03   -0.18534E-04  4440   0.628E-02    0.729E-02
DAV:   6    -0.336631111019E+03   -0.96865E-05   -0.13070E-04  4256   0.447E-02    0.727E-02
DAV:   7    -0.336631093333E+03    0.17686E-04   -0.87880E-05  4272   0.376E-02    0.474E-02
DAV:   8    -0.336631080705E+03    0.12628E-04   -0.39425E-05  4176   0.270E-02    0.231E-02
DAV:   9    -0.336631080078E+03    0.62709E-06   -0.13035E-05  4040   0.155E-02    0.187E-02
DAV:  10    -0.336631078025E+03    0.20528E-05   -0.60052E-06  3072   0.106E-02    0.961E-03
DAV:  11    -0.336631078122E+03   -0.96050E-07   -0.20140E-06  2320   0.557E-03
  65 F= -.33663108E+03 E0= -.33650605E+03  d E =-.224029E-02
quench:  g(F)=  0.000E+00 g(S)=  0.000E+00 dE (1.order)= 0.000E+00
 bond charge predicted
       N       E                     dE             d eps       ncg     rms          rms(c)
DAV:   1    -0.336632880777E+03   -0.18028E-02   -0.12939E-01  4000   0.439E-01    0.906E-02
DAV:   2    -0.336633119358E+03   -0.23858E-03   -0.25925E-03  4400   0.696E-02    0.112E-01
DAV:   3    -0.336633324616E+03   -0.20526E-03   -0.52886E-04  4168   0.945E-02    0.206E-01
DAV:   4    -0.336633151765E+03    0.17285E-03   -0.47145E-04  4568   0.965E-02    0.137E-01
DAV:   5    -0.336633063052E+03    0.88713E-04   -0.18110E-04  4440   0.627E-02    0.754E-02
DAV:   6    -0.336633072252E+03   -0.92000E-05   -0.13737E-04  4248   0.460E-02    0.748E-02
DAV:   7    -0.336633056211E+03    0.16041E-04   -0.93571E-05  4296   0.388E-02    0.506E-02
DAV:   8    -0.336633040886E+03    0.15325E-04   -0.42096E-05  4184   0.283E-02    0.230E-02
DAV:   9    -0.336633040653E+03    0.23302E-06   -0.14129E-05  4080   0.160E-02    0.192E-02
DAV:  10    -0.336633038262E+03    0.23910E-05   -0.60355E-06  3192   0.111E-02    0.882E-03
DAV:  11    -0.336633038465E+03   -0.20336E-06   -0.19043E-06  2336   0.559E-03
  66 F= -.33663304E+03 E0= -.33650806E+03  d E =-.196034E-02
quench:  g(F)=  0.000E+00 g(S)=  0.000E+00 dE (1.order)= 0.000E+00
 bond charge predicted
       N       E                     dE             d eps       ncg     rms          rms(c)
DAV:   1    -0.336634558991E+03   -0.15207E-02   -0.13163E-01  4000   0.445E-01    0.929E-02
DAV:   2    -0.336634818139E+03   -0.25915E-03   -0.26430E-03  4440   0.739E-02    0.127E-01
DAV:   3    -0.336635030055E+03   -0.21192E-03   -0.62223E-04  4176   0.102E-01    0.218E-01
DAV:   4    -0.336634814111E+03    0.21594E-03   -0.49430E-04  4608   0.992E-02    0.133E-01
DAV:   5    -0.336634736135E+03    0.77975E-04   -0.19096E-04  4504   0.629E-02    0.766E-02
DAV:   6    -0.336634746609E+03   -0.10474E-04   -0.14659E-04  4272   0.472E-02    0.768E-02
DAV:   7    -0.336634731549E+03    0.15060E-04   -0.10331E-04  4312   0.401E-02    0.535E-02
DAV:   8    -0.336634714007E+03    0.17543E-04   -0.47015E-05  4200   0.295E-02    0.234E-02
DAV:   9    -0.336634714375E+03   -0.36802E-06   -0.16078E-05  4208   0.169E-02    0.213E-02
DAV:  10    -0.336634711384E+03    0.29905E-05   -0.74617E-06  3312   0.119E-02    0.969E-03
DAV:  11    -0.336634711467E+03   -0.83077E-07   -0.22009E-06  2368   0.593E-03
  67 F= -.33663471E+03 E0= -.33650979E+03  d E =-.167300E-02
quench:  g(F)=  0.000E+00 g(S)=  0.000E+00 dE (1.order)= 0.000E+00
 bond charge predicted
       N       E                     dE             d eps       ncg     rms          rms(c)
DAV:   1    -0.336635949781E+03   -0.12384E-02   -0.13387E-01  4000   0.452E-01    0.955E-02
DAV:   2    -0.336636242671E+03   -0.29289E-03   -0.27079E-03  4512   0.796E-02    0.146E-01
DAV:   3    -0.336636428459E+03   -0.18579E-03   -0.70194E-04  4168   0.109E-01    0.223E-01
DAV:   4    -0.336636198782E+03    0.22968E-03   -0.51247E-04  4648   0.101E-01    0.134E-01
DAV:   5    -0.336636123025E+03    0.75758E-04   -0.20407E-04  4528   0.641E-02    0.797E-02
DAV:   6    -0.336636132243E+03   -0.92183E-05   -0.15443E-04  4264   0.484E-02    0.776E-02
DAV:   7    -0.336636119948E+03    0.12295E-04   -0.10219E-04  4288   0.412E-02    0.560E-02
DAV:   8    -0.336636099822E+03    0.20125E-04   -0.48058E-05  4176   0.308E-02    0.234E-02
DAV:   9    -0.336636100796E+03   -0.97317E-06   -0.17549E-05  4144   0.176E-02    0.228E-02
DAV:  10    -0.336636097423E+03    0.33726E-05   -0.79548E-06  3440   0.125E-02    0.107E-02
DAV:  11    -0.336636097332E+03    0.90695E-07   -0.24606E-06  2376   0.624E-03
  68 F= -.33663610E+03 E0= -.33651123E+03  d E =-.138587E-02
quench:  g(F)=  0.000E+00 g(S)=  0.000E+00 dE (1.order)= 0.000E+00
 bond charge predicted
       N       E                     dE             d eps       ncg     rms          rms(c)
DAV:   1    -0.336637054531E+03   -0.95711E-03   -0.13619E-01  4000   0.459E-01    0.981E-02
DAV:   2    -0.336637384500E+03   -0.32997E-03   -0.27928E-03  4600   0.852E-02    0.164E-01
DAV:   3    -0.336637543716E+03   -0.15922E-03   -0.79833E-04  4208   0.116E-01    0.229E-01
DAV:   4    -0.336637294325E+03    0.24939E-03   -0.52983E-04  4664   0.103E-01    0.133E-01
DAV:   5    -0.336637224675E+03    0.69649E-04   -0.21869E-04  4584   0.651E-02    0.824E-02
DAV:   6    -0.336637233159E+03   -0.84837E-05   -0.16632E-04  4272   0.497E-02    0.791E-02
DAV:   7    -0.336637223444E+03    0.97147E-05   -0.11270E-04  4264   0.424E-02    0.591E-02
DAV:   8    -0.336637200604E+03    0.22841E-04   -0.52989E-05  4176   0.320E-02    0.236E-02
DAV:   9    -0.336637201875E+03   -0.12713E-05   -0.19148E-05  4144   0.183E-02    0.236E-02
DAV:  10    -0.336637198166E+03    0.37089E-05   -0.89802E-06  3536   0.130E-02    0.107E-02
DAV:  11    -0.336637198050E+03    0.11580E-06   -0.24666E-06  2376   0.640E-03
  69 F= -.33663720E+03 E0= -.33651240E+03  d E =-.110072E-02
quench:  g(F)=  0.000E+00 g(S)=  0.000E+00 dE (1.order)= 0.000E+00
 bond charge predicted
       N       E                     dE             d eps       ncg     rms          rms(c)
DAV:   1    -0.336637883271E+03   -0.68511E-03   -0.13865E-01  4000   0.467E-01    0.101E-01
DAV:   2    -0.336638256512E+03   -0.37324E-03   -0.28843E-03  4736   0.911E-02    0.182E-01
DAV:   3    -0.336638382463E+03   -0.12595E-03   -0.87929E-04  4200   0.122E-01    0.235E-01
DAV:   4    -0.336638115582E+03    0.26688E-03   -0.54976E-04  4680   0.105E-01    0.132E-01
DAV:   5    -0.336638050672E+03    0.64910E-04   -0.22735E-04  4536   0.661E-02    0.846E-02
DAV:   6    -0.336638059250E+03   -0.85782E-05   -0.17199E-04  4256   0.509E-02    0.807E-02
DAV:   7    -0.336638051988E+03    0.72623E-05   -0.11548E-04  4264   0.436E-02    0.618E-02
DAV:   8    -0.336638026574E+03    0.25414E-04   -0.55529E-05  4176   0.332E-02    0.239E-02
DAV:   9    -0.336638028096E+03   -0.15227E-05   -0.20515E-05  4136   0.189E-02    0.244E-02
DAV:  10    -0.336638024011E+03    0.40849E-05   -0.90312E-06  3672   0.134E-02    0.108E-02
DAV:  11    -0.336638023844E+03    0.16763E-06   -0.25066E-06  2384   0.650E-03
  70 F= -.33663802E+03 E0= -.33651330E+03  d E =-.825794E-03
quench:  g(F)=  0.000E+00 g(S)=  0.000E+00 dE (1.order)= 0.000E+00
 bond charge predicted
       N       E                     dE             d eps       ncg     rms          rms(c)
DAV:   1    -0.336638449983E+03   -0.42597E-03   -0.14131E-01  4000   0.475E-01    0.103E-01
DAV:   2    -0.336638874774E+03   -0.42479E-03   -0.29964E-03  4840   0.976E-02    0.201E-01
DAV:   3    -0.336638954515E+03   -0.79741E-04   -0.97731E-04  4192   0.128E-01    0.238E-01
DAV:   4    -0.336638679206E+03    0.27531E-03   -0.56840E-04  4688   0.107E-01    0.133E-01
[...]
DAV:   3    -0.336643162563E+03    0.31698E-06   -0.49848E-07  2144   0.326E-03    0.358E-03
DAV:   4    -0.336643162506E+03    0.56956E-07   -0.13287E-07  2104   0.154E-03    0.167E-03
DAV:   5    -0.336643162496E+03    0.97571E-08   -0.54544E-08  2104   0.966E-04
 683 F= -.33664316E+03 E0= -.33652225E+03  d E =-.335094E-06
quench:  g(F)=  0.000E+00 g(S)=  0.000E+00 dE (1.order)= 0.000E+00
 bond charge predicted
       N       E                     dE             d eps       ncg     rms          rms(c)
DAV:   1    -0.336643162799E+03   -0.29313E-06   -0.20377E-05  3976   0.578E-03    0.178E-03
DAV:   2    -0.336643163315E+03   -0.51568E-06   -0.10547E-06  2232   0.363E-03    0.822E-03
DAV:   3    -0.336643162837E+03    0.47775E-06   -0.58229E-07  2096   0.323E-03    0.168E-03
DAV:   4    -0.336643162866E+03   -0.29111E-07   -0.95072E-08  2088   0.128E-03    0.266E-03
DAV:   5    -0.336643162828E+03    0.37609E-07   -0.69234E-08  2064   0.116E-03
 684 F= -.33664316E+03 E0= -.33652226E+03  d E =-.332315E-06
quench:  g(F)=  0.000E+00 g(S)=  0.000E+00 dE (1.order)= 0.000E+00
 bond charge predicted
       N       E                     dE             d eps       ncg     rms          rms(c)
DAV:   1    -0.336643163126E+03   -0.26045E-06   -0.20029E-05  3976   0.570E-03    0.165E-03
DAV:   2    -0.336643163468E+03   -0.34188E-06   -0.80552E-07  2224   0.318E-03    0.659E-03
DAV:   3    -0.336643163230E+03    0.23864E-06   -0.43467E-07  2144   0.304E-03    0.374E-03
DAV:   4    -0.336643163157E+03    0.72352E-07   -0.12502E-07  2104   0.152E-03    0.145E-03
DAV:   5    -0.336643163151E+03    0.59226E-08   -0.46062E-08  2088   0.882E-04
 685 F= -.33664316E+03 E0= -.33652225E+03  d E =-.323016E-06
quench:  g(F)=  0.000E+00 g(S)=  0.000E+00 dE (1.order)= 0.000E+00
 bond charge predicted
       N       E                     dE             d eps       ncg     rms          rms(c)
DAV:   1    -0.336643163430E+03   -0.27273E-06   -0.20007E-05  3960   0.575E-03    0.168E-03
DAV:   2    -0.336643163877E+03   -0.44749E-06   -0.94536E-07  2168   0.335E-03    0.759E-03
DAV:   3    -0.336643163469E+03    0.40836E-06   -0.50687E-07  2096   0.298E-03    0.154E-03
DAV:   4    -0.336643163501E+03   -0.31483E-07   -0.86713E-08  2104   0.123E-03    0.266E-03
DAV:   5    -0.336643163462E+03    0.38825E-07   -0.66114E-08  2064   0.114E-03
 686 F= -.33664316E+03 E0= -.33652226E+03  d E =-.310443E-06
quench:  g(F)=  0.000E+00 g(S)=  0.000E+00 dE (1.order)= 0.000E+00
 bond charge predicted
       N       E                     dE             d eps       ncg     rms          rms(c)
DAV:   1    -0.336643163731E+03   -0.23085E-06   -0.20009E-05  3960   0.574E-03    0.160E-03
DAV:   2    -0.336643164045E+03   -0.31401E-06   -0.74520E-07  2256   0.301E-03    0.627E-03
DAV:   3    -0.336643163839E+03    0.20659E-06   -0.40179E-07  2160   0.292E-03    0.373E-03
DAV:   4    -0.336643163766E+03    0.73000E-07   -0.11938E-07  2088   0.149E-03    0.140E-03
DAV:   5    -0.336643163759E+03    0.67303E-08   -0.42589E-08  2072   0.850E-04
 687 F= -.33664316E+03 E0= -.33652225E+03  d E =-.297361E-06
quench:  g(F)=  0.000E+00 g(S)=  0.000E+00 dE (1.order)= 0.000E+00
 bond charge predicted
       N       E                     dE             d eps       ncg     rms          rms(c)
DAV:   1    -0.336643164003E+03   -0.23709E-06   -0.20220E-05  3960   0.582E-03    0.166E-03
DAV:   2    -0.336643164426E+03   -0.42264E-06   -0.91042E-07  2128   0.324E-03    0.732E-03
DAV:   3    -0.336643164044E+03    0.38198E-06   -0.48076E-07  2088   0.288E-03    0.153E-03
DAV:   4    -0.336643164077E+03   -0.33746E-07   -0.85886E-08  2104   0.124E-03    0.272E-03
DAV:   5    -0.336643164038E+03    0.39749E-07   -0.66169E-08  2080   0.114E-03
 688 F= -.33664316E+03 E0= -.33652226E+03  d E =-.278473E-06
quench:  g(F)=  0.000E+00 g(S)=  0.000E+00 dE (1.order)= 0.000E+00
 bond charge predicted
       N       E                     dE             d eps       ncg     rms          rms(c)
DAV:   1    -0.336643164266E+03   -0.18902E-06   -0.20360E-05  3960   0.585E-03    0.161E-03
DAV:   2    -0.336643164577E+03   -0.31043E-06   -0.73338E-07  2176   0.297E-03    0.621E-03
DAV:   3    -0.336643164376E+03    0.20055E-06   -0.39679E-07  2112   0.290E-03    0.373E-03
DAV:   4    -0.336643164303E+03    0.73531E-07   -0.11859E-07  2088   0.149E-03    0.143E-03
DAV:   5    -0.336643164297E+03    0.55516E-08   -0.42422E-08  2104   0.853E-04
 689 F= -.33664316E+03 E0= -.33652226E+03  d E =-.259563E-06
quench:  g(F)=  0.000E+00 g(S)=  0.000E+00 dE (1.order)= 0.000E+00
 bond charge predicted
       N       E                     dE             d eps       ncg     rms          rms(c)
DAV:   1    -0.336643164492E+03   -0.18976E-06   -0.20691E-05  3960   0.594E-03    0.168E-03
DAV:   2    -0.336643164921E+03   -0.42822E-06   -0.92355E-07  2128   0.324E-03    0.731E-03
DAV:   3    -0.336643164536E+03    0.38512E-06   -0.48884E-07  2088   0.289E-03    0.158E-03
DAV:   4    -0.336643164573E+03   -0.37406E-07   -0.89101E-08  2088   0.127E-03    0.279E-03
DAV:   5    -0.336643164531E+03    0.42324E-07   -0.68166E-08  2064   0.116E-03
 690 F= -.33664316E+03 E0= -.33652226E+03  d E =-.233485E-06
quench:  g(F)=  0.000E+00 g(S)=  0.000E+00 dE (1.order)= 0.000E+00
 bond charge predicted
       N       E                     dE             d eps       ncg     rms          rms(c)
DAV:   1    -0.336643164711E+03   -0.13856E-06   -0.20887E-05  3960   0.599E-03    0.165E-03
DAV:   2    -0.336643165037E+03   -0.32564E-06   -0.75498E-07  2184   0.303E-03    0.637E-03
DAV:   3    -0.336643164825E+03    0.21168E-06   -0.41701E-07  2128   0.297E-03    0.382E-03
DAV:   4    -0.336643164750E+03    0.75794E-07   -0.12390E-07  2088   0.152E-03    0.149E-03
DAV:   5    -0.336643164745E+03    0.48167E-08   -0.44806E-08  2072   0.880E-04
 691 F= -.33664316E+03 E0= -.33652226E+03  d E =-.214226E-06
quench:  g(F)=  0.000E+00 g(S)=  0.000E+00 dE (1.order)= 0.000E+00
 bond charge predicted
       N       E                     dE             d eps       ncg     rms          rms(c)
DAV:   1    -0.336643164887E+03   -0.13721E-06   -0.21303E-05  3960   0.609E-03    0.174E-03
DAV:   2    -0.336643165340E+03   -0.45334E-06   -0.96896E-07  2136   0.333E-03    0.748E-03
DAV:   3    -0.336643164932E+03    0.40797E-06   -0.51912E-07  2088   0.296E-03    0.168E-03
DAV:   4    -0.336643164971E+03   -0.38803E-07   -0.95829E-08  2088   0.132E-03    0.287E-03
DAV:   5    -0.336643164928E+03    0.42615E-07   -0.71549E-08  2064   0.118E-03
 692 F= -.33664316E+03 E0= -.33652226E+03  d E =-.183587E-06
quench:  g(F)=  0.000E+00 g(S)=  0.000E+00 dE (1.order)= 0.000E+00
 bond charge predicted
       N       E                     dE             d eps       ncg     rms          rms(c)
DAV:   1    -0.336643165056E+03   -0.85136E-07   -0.21517E-05  3960   0.614E-03    0.172E-03
DAV:   2    -0.336643165406E+03   -0.35007E-06   -0.79772E-07  2160   0.313E-03    0.660E-03
DAV:   3    -0.336643165176E+03    0.23058E-06   -0.44754E-07  2112   0.307E-03    0.388E-03
DAV:   4    -0.336643165099E+03    0.77118E-07   -0.13065E-07  2088   0.156E-03    0.159E-03
DAV:   5    -0.336643165094E+03    0.48749E-08   -0.49502E-08  2056   0.928E-04
 693 F= -.33664317E+03 E0= -.33652226E+03  d E =-.165244E-06
quench:  g(F)=  0.000E+00 g(S)=  0.000E+00 dE (1.order)= 0.000E+00
 bond charge predicted
       N       E                     dE             d eps       ncg     rms          rms(c)
DAV:   1    -0.336643165182E+03   -0.83615E-07   -0.21999E-05  3960   0.624E-03    0.181E-03
DAV:   2    -0.336643165673E+03   -0.49041E-06   -0.10363E-06  2136   0.347E-03    0.775E-03
DAV:   3    -0.336643165229E+03    0.44347E-06   -0.56318E-07  2096   0.308E-03    0.181E-03
DAV:   4    -0.336643165271E+03   -0.41458E-07   -0.10541E-07  2088   0.138E-03    0.295E-03
DAV:   5    -0.336643165228E+03    0.43001E-07   -0.75911E-08  2064   0.121E-03
 694 F= -.33664317E+03 E0= -.33652227E+03  d E =-.133892E-06
quench:  g(F)=  0.000E+00 g(S)=  0.000E+00 dE (1.order)= 0.000E+00
 bond charge predicted
       N       E                     dE             d eps       ncg     rms          rms(c)
DAV:   1    -0.336643165305E+03   -0.34248E-07   -0.22208E-05  3960   0.629E-03    0.179E-03
DAV:   2    -0.336643165684E+03   -0.37959E-06   -0.86050E-07  2160   0.325E-03    0.689E-03
DAV:   3    -0.336643165424E+03    0.26033E-06   -0.48580E-07  2104   0.317E-03    0.388E-03
DAV:   4    -0.336643165350E+03    0.73851E-07   -0.13684E-07  2088   0.159E-03    0.173E-03
DAV:   5    -0.336643165346E+03    0.46566E-08   -0.56292E-08  2040   0.995E-04
 695 F= -.33664317E+03 E0= -.33652226E+03  d E =-.117994E-06
quench:  g(F)=  0.000E+00 g(S)=  0.000E+00 dE (1.order)= 0.000E+00
 bond charge predicted
       N       E                     dE             d eps       ncg     rms          rms(c)
DAV:   1    -0.336643165386E+03   -0.36045E-07   -0.22731E-05  3960   0.639E-03    0.189E-03
DAV:   2    -0.336643165924E+03   -0.53793E-06   -0.11156E-06  2200   0.364E-03    0.806E-03
DAV:   3    -0.336643165436E+03    0.48794E-06   -0.61263E-07  2096   0.323E-03    0.196E-03
DAV:   4    -0.336643165479E+03   -0.43066E-07   -0.11727E-07  2088   0.145E-03    0.302E-03
DAV:   5    -0.336643165436E+03    0.42914E-07   -0.80724E-08  2064   0.124E-03
 696 F= -.33664317E+03 E0= -.33652227E+03  d E =-.908403E-07
quench:  g(F)=  0.000E+00 g(S)=  0.000E+00 dE (1.order)= 0.000E+00
 bond charge predicted
       N       E                     dE             d eps       ncg     rms          rms(c)
DAV:   1    -0.336643165472E+03    0.77416E-08   -0.22918E-05  3968   0.642E-03    0.187E-03
DAV:   2    -0.336643165888E+03   -0.41645E-06   -0.94684E-07  2184   0.341E-03    0.725E-03
DAV:   3    -0.336643165587E+03    0.30100E-06   -0.53364E-07  2104   0.327E-03    0.378E-03
DAV:   4    -0.336643165522E+03    0.64749E-07   -0.14087E-07  2088   0.160E-03    0.190E-03
DAV:   5    -0.336643165516E+03    0.59736E-08   -0.65001E-08  2064   0.108E-03
 697 F= -.33664317E+03 E0= -.33652227E+03  d E =-.798973E-07
quench:  g(F)=  0.000E+00 g(S)=  0.000E+00 dE (1.order)= 0.000E+00
 bond charge predicted
       N       E                     dE             d eps       ncg     rms          rms(c)
DAV:   1    -0.336643165523E+03   -0.40745E-09   -0.23449E-05  3968   0.652E-03    0.197E-03
DAV:   2    -0.336643166107E+03   -0.58474E-06   -0.11936E-06  2224   0.381E-03    0.836E-03
DAV:   3    -0.336643165574E+03    0.53356E-06   -0.65676E-07  2112   0.338E-03    0.212E-03
DAV:   4    -0.336643165618E+03   -0.44631E-07   -0.13009E-07  2088   0.152E-03    0.308E-03
DAV:   5    -0.336643165577E+03    0.41429E-07   -0.85451E-08  2064   0.127E-03
 698 F= -.33664317E+03 E0= -.33652227E+03  d E =-.607615E-07
quench:  g(F)=  0.000E+00 g(S)=  0.000E+00 dE (1.order)= 0.000E+00
 bond charge predicted
       N       E                     dE             d eps       ncg     rms          rms(c)
DAV:   1    -0.336643165584E+03    0.34059E-07   -0.23592E-05  3968   0.654E-03    0.196E-03
DAV:   2    -0.336643166053E+03   -0.46873E-06   -0.10631E-06  2208   0.361E-03    0.773E-03
DAV:   3    -0.336643165690E+03    0.36298E-06   -0.59764E-07  2120   0.339E-03    0.355E-03
DAV:   4    -0.336643165642E+03    0.47905E-07   -0.14293E-07  2088   0.160E-03    0.213E-03
DAV:   5    -0.336643165634E+03    0.85274E-08   -0.75459E-08  2064   0.117E-03
 699 F= -.33664317E+03 E0= -.33652227E+03  d E =-.566943E-07
quench:  g(F)=  0.000E+00 g(S)=  0.000E+00 dE (1.order)= 0.000E+00
 bond charge predicted
       N       E                     dE             d eps       ncg     rms          rms(c)
DAV:   1    -0.336643165622E+03    0.20220E-07   -0.24089E-05  3976   0.661E-03    0.204E-03
DAV:   2    -0.336643166249E+03   -0.62737E-06   -0.12567E-06  2280   0.396E-03    0.859E-03
DAV:   3    -0.336643165677E+03    0.57263E-06   -0.68584E-07  2136   0.351E-03    0.233E-03
DAV:   4    -0.336643165718E+03   -0.41386E-07   -0.14251E-07  2088   0.158E-03    0.306E-03
DAV:   5    -0.336643165681E+03    0.36824E-07   -0.88381E-08  2064   0.128E-03
 700 F= -.33664317E+03 E0= -.33652227E+03  d E =-.476066E-07
quench:  g(F)=  0.000E+00 g(S)=  0.000E+00 dE (1.order)= 0.000E+00
 bond charge predicted
       N       E                     dE             d eps       ncg     rms          rms(c)
DAV:   1    -0.336643165682E+03    0.36518E-07   -0.24161E-05  3992   0.662E-03    0.204E-03
DAV:   2    -0.336643166220E+03   -0.53874E-06   -0.12067E-06  2264   0.384E-03    0.835E-03
DAV:   3    -0.336643165771E+03    0.44901E-06   -0.67720E-07  2112   0.353E-03    0.315E-03
DAV:   4    -0.336643165752E+03    0.19878E-07   -0.14272E-07  2088   0.158E-03    0.246E-03
DAV:   5    -0.336643165734E+03    0.17244E-07   -0.87940E-08  2080   0.128E-03
 701 F= -.33664317E+03 E0= -.33652227E+03  d E =-.529180E-07
quench:  g(F)=  0.000E+00 g(S)=  0.000E+00 dE (1.order)= 0.000E+00
 bond charge predicted
       N       E                     dE             d eps       ncg     rms          rms(c)
DAV:   1    -0.336643165728E+03    0.23392E-07   -0.24573E-05  3976   0.666E-03    0.209E-03
DAV:   2    -0.336643166389E+03   -0.66096E-06   -0.13015E-06  2360   0.409E-03    0.875E-03
DAV:   3    -0.336643165791E+03    0.59810E-06   -0.70040E-07  2136   0.362E-03    0.260E-03
DAV:   4    -0.336643165821E+03   -0.30261E-07   -0.15313E-07  2088   0.163E-03    0.294E-03
DAV:   5    -0.336643165793E+03    0.27801E-07   -0.88337E-08  2064   0.127E-03
 702 F= -.33664317E+03 E0= -.33652228E+03  d E =-.591681E-07
quench:  g(F)=  0.000E+00 g(S)=  0.000E+00 dE (1.order)= 0.000E+00
 bond charge predicted
       N       E                     dE             d eps       ncg     rms          rms(c)
DAV:   1    -0.336643165813E+03    0.82146E-08   -0.24523E-05  3992   0.664E-03    0.211E-03
DAV:   2    -0.336643166434E+03   -0.62058E-06   -0.13595E-06  2344   0.410E-03    0.905E-03
DAV:   3    -0.336643165885E+03    0.54816E-06   -0.76451E-07  2128   0.370E-03    0.271E-03
DAV:   4    -0.336643165896E+03   -0.10987E-07   -0.14311E-07  2088   0.157E-03    0.281E-03
DAV:   5    -0.336643165867E+03    0.29744E-07   -0.10046E-07  2064   0.138E-03
 703 F= -.33664317E+03 E0= -.33652228E+03  d E =-.732543E-07
quench:  g(F)=  0.000E+00 g(S)=  0.000E+00 dE (1.order)= 0.000E+00
 bond charge predicted
       N       E                     dE             d eps       ncg     rms          rms(c)
DAV:   1    -0.336643165893E+03    0.30195E-08   -0.24791E-05  3976   0.665E-03    0.211E-03
DAV:   2    -0.336643166579E+03   -0.68510E-06   -0.13275E-06  2384   0.418E-03    0.888E-03
DAV:   3    -0.336643165973E+03    0.60545E-06   -0.70998E-07  2152   0.373E-03    0.306E-03
DAV:   4    -0.336643165977E+03   -0.36744E-08   -0.16392E-07  2104   0.169E-03    0.265E-03
DAV:   5    -0.336643165961E+03    0.15374E-07   -0.84147E-08  2072   0.123E-03
 704 F= -.33664317E+03 E0= -.33652228E+03  d E =-.946820E-07
quench:  g(F)=  0.000E+00 g(S)=  0.000E+00 dE (1.order)= 0.000E+00
 bond charge predicted
       N       E                     dE             d eps       ncg     rms          rms(c)
DAV:   1    -0.336643166025E+03   -0.48312E-07   -0.24536E-05  4032   0.660E-03    0.217E-03
DAV:   2    -0.336643166723E+03   -0.69831E-06   -0.14743E-06  2376   0.433E-03    0.967E-03
DAV:   3    -0.336643166084E+03    0.63903E-06   -0.82753E-07  2136   0.386E-03    0.237E-03
DAV:   4    -0.336643166114E+03   -0.29897E-07   -0.14103E-07  2088   0.155E-03    0.299E-03
DAV:   5    -0.336643166079E+03    0.35390E-07   -0.10654E-07  2088   0.143E-03
 705 F= -.33664317E+03 E0= -.33652228E+03  d E =-.117470E-06
quench:  g(F)=  0.000E+00 g(S)=  0.000E+00 dE (1.order)= 0.000E+00
 bond charge predicted
       N       E                     dE             d eps       ncg     rms          rms(c)
DAV:   1    -0.336643166157E+03   -0.42361E-07   -0.24577E-05  3968   0.656E-03    0.211E-03
DAV:   2    -0.336643166859E+03   -0.70256E-06   -0.13306E-06  2400   0.423E-03    0.900E-03
DAV:   3    -0.336643166268E+03    0.59135E-06   -0.72607E-07  2152   0.384E-03    0.375E-03
DAV:   4    -0.336643166225E+03    0.42877E-07   -0.17982E-07  2112   0.179E-03    0.224E-03
DAV:   5    -0.336643166226E+03   -0.10623E-08   -0.78011E-08  2104   0.117E-03
 706 F= -.33664317E+03 E0= -.33652228E+03  d E =-.147149E-06
quench:  g(F)=  0.000E+00 g(S)=  0.000E+00 dE (1.order)= 0.000E+00
 bond charge predicted
       N       E                     dE             d eps       ncg     rms          rms(c)
DAV:   1    -0.336643166349E+03   -0.12384E-06   -0.23980E-05  4016   0.647E-03    0.217E-03
DAV:   2    -0.336643167086E+03   -0.73757E-06   -0.15011E-06  2408   0.443E-03    0.998E-03
DAV:   3    -0.336643166402E+03    0.68477E-06   -0.83628E-07  2160   0.394E-03    0.224E-03
DAV:   4    -0.336643166434E+03   -0.32232E-07   -0.13625E-07  2088   0.151E-03    0.294E-03
DAV:   5    -0.336643166401E+03    0.33258E-07   -0.10154E-07  2088   0.139E-03
 707 F= -.33664317E+03 E0= -.33652228E+03  d E =-.174557E-06
quench:  g(F)=  0.000E+00 g(S)=  0.000E+00 dE (1.order)= 0.000E+00
 bond charge predicted
       N       E                     dE             d eps       ncg     rms          rms(c)
DAV:   1    -0.336643166542E+03   -0.10836E-06   -0.23620E-05  3984   0.635E-03    0.206E-03
DAV:   2    -0.336643167219E+03   -0.67670E-06   -0.12743E-06  2400   0.417E-03    0.884E-03
DAV:   3    -0.336643166667E+03    0.55185E-06   -0.70213E-07  2152   0.382E-03    0.400E-03
DAV:   4    -0.336643166602E+03    0.65338E-07   -0.18049E-07  2112   0.180E-03    0.201E-03
DAV:   5    -0.336643166609E+03   -0.72469E-08   -0.72868E-08  2112   0.112E-03
 708 F= -.33664317E+03 E0= -.33652229E+03  d E =-.208376E-06
quench:  g(F)=  0.000E+00 g(S)=  0.000E+00 dE (1.order)= 0.000E+00
 bond charge predicted
       N       E                     dE             d eps       ncg     rms          rms(c)
DAV:   1    -0.336643166795E+03   -0.19317E-06   -0.22457E-05  4000   0.620E-03    0.210E-03
DAV:   2    -0.336643167502E+03   -0.70753E-06   -0.14193E-06  2416   0.435E-03    0.982E-03
DAV:   3    -0.336643166840E+03    0.66192E-06   -0.79029E-07  2168   0.386E-03    0.217E-03
DAV:   4    -0.336643166870E+03   -0.29097E-07   -0.12717E-07  2088   0.146E-03    0.283E-03
DAV:   5    -0.336643166837E+03    0.32138E-07   -0.89969E-08  2064   0.131E-03
 709 F= -.33664317E+03 E0= -.33652229E+03  d E =-.228494E-06
quench:  g(F)=  0.000E+00 g(S)=  0.000E+00 dE (1.order)= 0.000E+00
 bond charge predicted
       N       E                     dE             d eps       ncg     rms          rms(c)
DAV:   1    -0.336643167031E+03   -0.16182E-06   -0.21424E-05  3992   0.596E-03    0.193E-03
DAV:   2    -0.336643167617E+03   -0.58573E-06   -0.11264E-06  2400   0.391E-03    0.820E-03
DAV:   3    -0.336643167142E+03    0.47532E-06   -0.61172E-07  2152   0.359E-03    0.376E-03
DAV:   4    -0.336643167084E+03    0.57742E-07   -0.15766E-07  2104   0.167E-03    0.186E-03
DAV:   5    -0.336643167092E+03   -0.76543E-08   -0.64701E-08  2104   0.105E-03
 710 F= -.33664317E+03 E0= -.33652229E+03  d E =-.254280E-06
quench:  g(F)=  0.000E+00 g(S)=  0.000E+00 dE (1.order)= 0.000E+00
 bond charge predicted
       N       E                     dE             d eps       ncg     rms          rms(c)
DAV:   1    -0.336643167313E+03   -0.22893E-06   -0.19603E-05  3976   0.575E-03    0.193E-03
DAV:   2    -0.336643167921E+03   -0.60767E-06   -0.12252E-06  2304   0.405E-03    0.916E-03
DAV:   3    -0.336643167348E+03    0.57278E-06   -0.69102E-07  2144   0.360E-03    0.200E-03
DAV:   4    -0.336643167374E+03   -0.25655E-07   -0.10873E-07  2088   0.135E-03    0.263E-03
DAV:   5    -0.336643167344E+03    0.29395E-07   -0.73817E-08  2064   0.118E-03
 711 F= -.33664317E+03 E0= -.33652229E+03  d E =-.252432E-06
quench:  g(F)=  0.000E+00 g(S)=  0.000E+00 dE (1.order)= 0.000E+00
 reached required accuracy - stopping structural energy minimisation
