<?xml version="1.0" encoding="ISO-8859-1"?>
<modeling>
 <generator>
  <i name="program" type="string">vasp </i>
  <i name="version" type="string">5.4.4.18Apr17-6-g9f103f2a35  </i>
  <i name="subversion" type="string">(build Aug 16 2021 22:57:11) complex            parallel </i>
  <i name="platform" type="string">LinuxIFC </i>
  <i name="date" type="string">2021 12 19 </i>
  <i name="time" type="string">07:59:12 </i>
 </generator>
 <incar>
  <i type="string" name="SYSTEM"> Si-Diamond</i>
  <i type="int" name="ISTART">     0</i>
  <i type="string" name="PREC">normal</i>
  <i type="int" name="ICHARG">     2</i>
  <i type="int" name="NELMIN">     5</i>
  <i type="int" name="IBRION">     5</i>
  <i name="EDIFF">      0.00000010</i>
  <i type="int" name="NSW">  1000</i>
  <i type="int" name="ISIF">     2</i>
  <i type="int" name="ISYM">     0</i>
  <i name="ENCUT">    400.00000000</i>
  <i name="POTIM">      0.00200000</i>
  <i type="logical" name="LREAL"> F  </i>
  <i type="logical" name="LWAVE"> F  </i>
  <i type="logical" name="LCHARG"> F  </i>
  <v type="int" name="KPOINT_BSE">    -1     0     0     0</v>
 </incar>
 <structure name="primitive_cell" >
  <crystal>
   <varray name="basis" >
    <v>      11.14491190       0.00000000       0.00000000 </v>
    <v>       5.57245595       9.65177683       0.00000000 </v>
    <v>       0.00000000       0.00000000      21.82483685 </v>
   </varray>
   <i name="volume">   2347.65846769 </i>
   <varray name="rec_basis" >
    <v>       0.08972704      -0.05180393       0.00000000 </v>
    <v>       0.00000000       0.10360787       0.00000000 </v>
    <v>       0.00000000       0.00000000       0.04581936 </v>
   </varray>
  </crystal>
  <varray name="positions" >
   <v>       0.00000000       0.00000000       0.34364518 </v>
   <v>      -0.16666667       0.08333333       0.44788173 </v>
   <v>       0.08333333      -0.16666667       0.44788173 </v>
   <v>       0.08333333       0.08333333       0.44788173 </v>
   <v>      -0.25000000       0.25000000       0.34364518 </v>
   <v>       0.25000000       0.00000000       0.34364518 </v>
   <v>      -0.25000000       0.00000000       0.34364518 </v>
   <v>       0.00000000       0.25000000       0.34364518 </v>
   <v>       0.25000000      -0.25000000       0.34364518 </v>
   <v>       0.00000000      -0.25000000       0.34364518 </v>
   <v>      -0.16666667      -0.16666667       0.44788173 </v>
   <v>       0.33333333      -0.16666667       0.44788173 </v>
   <v>      -0.16666667       0.33333333       0.44788173 </v>
   <v>      -0.41666667       0.08333333       0.44788173 </v>
   <v>       0.08333333      -0.41666667       0.44788173 </v>
   <v>      -0.41666667       0.33333333       0.44788173 </v>
   <v>       0.33333333      -0.41666667       0.44788173 </v>
   <v>       0.33333333       0.08333333       0.44788173 </v>
   <v>       0.08333333       0.33333333       0.44788173 </v>
   <v>      -0.50000000       0.25000000       0.34364518 </v>
   <v>       0.25000000      -0.50000000       0.34364518 </v>
   <v>      -0.25000000      -0.50000000       0.34364518 </v>
   <v>       0.25000000       0.25000000       0.34364518 </v>
   <v>      -0.50000000      -0.25000000       0.34364518 </v>
   <v>      -0.25000000      -0.25000000       0.34364518 </v>
   <v>       0.16666667      -0.08333333      -0.44687177 </v>
   <v>      -0.08333333       0.16666667      -0.44687177 </v>
   <v>      -0.08333333      -0.08333333      -0.44687177 </v>
   <v>       0.00000000      -0.50000000       0.34364518 </v>
   <v>      -0.50000000      -0.50000000       0.34364518 </v>
   <v>      -0.50000000       0.00000000       0.34364518 </v>
   <v>       0.16666667       0.16666667      -0.44687177 </v>
   <v>      -0.33333333       0.16666667      -0.44687177 </v>
   <v>       0.16666667      -0.33333333      -0.44687177 </v>
   <v>      -0.41666667      -0.16666667       0.44788173 </v>
   <v>      -0.16666667      -0.41666667       0.44788173 </v>
   <v>      -0.41666667      -0.41666667       0.44788173 </v>
   <v>       0.41666667      -0.08333333      -0.44687177 </v>
   <v>      -0.08333333       0.41666667      -0.44687177 </v>
   <v>       0.41666667      -0.33333333      -0.44687177 </v>
   <v>      -0.33333333       0.41666667      -0.44687177 </v>
   <v>      -0.33333333      -0.08333333      -0.44687177 </v>
   <v>      -0.08333333      -0.33333333      -0.44687177 </v>
   <v>       0.33333333       0.33333333       0.44788173 </v>
   <v>       0.00000000       0.00000000      -0.34060789 </v>
   <v>       0.41666667       0.16666667      -0.44687177 </v>
   <v>       0.16666667       0.41666667      -0.44687177 </v>
   <v>       0.41666667       0.41666667      -0.44687177 </v>
   <v>      -0.25000000       0.25000000      -0.34060789 </v>
   <v>       0.25000000       0.00000000      -0.34060789 </v>
   <v>      -0.25000000       0.00000000      -0.34060789 </v>
   <v>       0.00000000       0.25000000      -0.34060789 </v>
   <v>       0.25000000      -0.25000000      -0.34060789 </v>
   <v>       0.00000000      -0.25000000      -0.34060789 </v>
   <v>      -0.33333333      -0.33333333      -0.44687177 </v>
   <v>      -0.50000000       0.25000000      -0.34060789 </v>
   <v>       0.25000000       0.25000000      -0.34060789 </v>
   <v>       0.25000000      -0.50000000      -0.34060789 </v>
   <v>      -0.25000000      -0.50000000      -0.34060789 </v>
   <v>      -0.50000000      -0.25000000      -0.34060789 </v>
   <v>      -0.25000000      -0.25000000      -0.34060789 </v>
   <v>      -0.00034343       0.10579167      -0.25783066 </v>
   <v>       0.00000000      -0.50000000      -0.34060789 </v>
   <v>      -0.50000000       0.00000000      -0.34060789 </v>
   <v>      -0.50000000      -0.50000000      -0.34060789 </v>
   <v>       0.24605750       0.00392377      -0.24727160 </v>
   <v>       0.14211391       0.04286646      -0.21979305 </v>
  </varray>
 </structure>
 <varray name="primitive_index" >
  <v type="int" >        1 </v>
  <v type="int" >       20 </v>
  <v type="int" >       29 </v>
  <v type="int" >       17 </v>
  <v type="int" >        8 </v>
  <v type="int" >        2 </v>
  <v type="int" >        4 </v>
  <v type="int" >        5 </v>
  <v type="int" >       14 </v>
  <v type="int" >       13 </v>
  <v type="int" >       32 </v>
  <v type="int" >       30 </v>
  <v type="int" >       24 </v>
  <v type="int" >       19 </v>
  <v type="int" >       25 </v>
  <v type="int" >       23 </v>
  <v type="int" >       26 </v>
  <v type="int" >       18 </v>
  <v type="int" >       21 </v>
  <v type="int" >        7 </v>
  <v type="int" >       10 </v>
  <v type="int" >       12 </v>
  <v type="int" >        6 </v>
  <v type="int" >       15 </v>
  <v type="int" >       16 </v>
  <v type="int" >       46 </v>
  <v type="int" >       33 </v>
  <v type="int" >       45 </v>
  <v type="int" >        9 </v>
  <v type="int" >       11 </v>
  <v type="int" >        3 </v>
  <v type="int" >       34 </v>
  <v type="int" >       36 </v>
  <v type="int" >       42 </v>
  <v type="int" >       31 </v>
  <v type="int" >       28 </v>
  <v type="int" >       27 </v>
  <v type="int" >       47 </v>
  <v type="int" >       37 </v>
  <v type="int" >       43 </v>
  <v type="int" >       40 </v>
  <v type="int" >       48 </v>
  <v type="int" >       41 </v>
  <v type="int" >       22 </v>
  <v type="int" >       49 </v>
  <v type="int" >       35 </v>
  <v type="int" >       38 </v>
  <v type="int" >       39 </v>
  <v type="int" >       56 </v>
  <v type="int" >       50 </v>
  <v type="int" >       52 </v>
  <v type="int" >       53 </v>
  <v type="int" >       62 </v>
  <v type="int" >       61 </v>
  <v type="int" >       44 </v>
  <v type="int" >       55 </v>
  <v type="int" >       54 </v>
  <v type="int" >       58 </v>
  <v type="int" >       60 </v>
  <v type="int" >       63 </v>
  <v type="int" >       64 </v>
  <v type="int" >       67 </v>
  <v type="int" >       57 </v>
  <v type="int" >       51 </v>
  <v type="int" >       59 </v>
  <v type="int" >       65 </v>
  <v type="int" >       66 </v>
 </varray>
 <kpoints>
  <generation param="Monkhorst-Pack">
   <v type="int" name="divisions">       3        3        1 </v>
   <v name="usershift">      0.00000000       0.00000000       0.00000000 </v>
   <v name="genvec1">      0.33333333       0.00000000       0.00000000 </v>
   <v name="genvec2">      0.00000000       0.33333333       0.00000000 </v>
   <v name="genvec3">      0.00000000       0.00000000       1.00000000 </v>
   <v name="shift">      0.00000000       0.00000000       0.00000000 </v>
  </generation>
  <varray name="kpointlist" >
   <v>       0.00000000       0.00000000       0.00000000 </v>
   <v>       0.33333333      -0.00000000       0.00000000 </v>
   <v>       0.00000000       0.33333333       0.00000000 </v>
   <v>       0.33333333       0.33333333       0.00000000 </v>
   <v>      -0.33333333       0.33333333       0.00000000 </v>
  </varray>
  <varray name="weights" >
   <v>       0.11111111 </v>
   <v>       0.22222222 </v>
   <v>       0.22222222 </v>
   <v>       0.22222222 </v>
   <v>       0.22222222 </v>
  </varray>
 </kpoints>
 <parameters>
  <separator name="general" >
   <i type="string" name="SYSTEM">Si-Diamond</i>
   <i type="logical" name="LCOMPAT"> F  </i>
  </separator>
  <separator name="electronic" >
   <i type="string" name="PREC">normal</i>
   <i name="ENMAX">    400.00000000</i>
   <i name="ENAUG">    627.11200000</i>
   <i name="EDIFF">      0.00000010</i>
   <i type="int" name="IALGO">    38</i>
   <i type="int" name="IWAVPR">    11</i>
   <i type="int" name="NBANDS">   400</i>
   <i name="NELECT">    656.00000000</i>
   <i type="int" name="TURBO">     0</i>
   <i type="int" name="IRESTART">     0</i>
   <i type="int" name="NREBOOT">     0</i>
   <i type="int" name="NMIN">     0</i>
   <i name="EREF">      0.00000000</i>
   <separator name="electronic smearing" >
    <i type="int" name="ISMEAR">     1</i>
    <i name="SIGMA">      0.20000000</i>
    <i name="KSPACING">      0.50000000</i>
    <i type="logical" name="KGAMMA"> T  </i>
   </separator>
   <separator name="electronic projectors" >
    <i type="logical" name="LREAL"> F  </i>
    <v name="ROPT">      0.00000000      0.00000000      0.00000000</v>
    <i type="int" name="LMAXPAW">  -100</i>
    <i type="int" name="LMAXMIX">     2</i>
    <i type="logical" name="NLSPLINE"> F  </i>
   </separator>
   <separator name="electronic startup" >
    <i type="int" name="ISTART">     0</i>
    <i type="int" name="ICHARG">     2</i>
    <i type="int" name="INIWAV">     1</i>
   </separator>
   <separator name="electronic spin" >
    <i type="int" name="ISPIN">     1</i>
    <i type="logical" name="LNONCOLLINEAR"> F  </i>
    <v name="MAGMOM">      1.00000000      1.00000000      1.00000000      1.00000000      1.00000000      1.00000000      1.00000000      1.00000000      1.00000000      1.00000000      1.00000000      1.00000000      1.00000000      1.00000000      1.00000000      1.00000000      1.00000000      1.00000000      1.00000000      1.00000000
      1.00000000      1.00000000      1.00000000      1.00000000      1.00000000      1.00000000      1.00000000      1.00000000      1.00000000      1.00000000      1.00000000      1.00000000      1.00000000      1.00000000      1.00000000      1.00000000      1.00000000      1.00000000      1.00000000      1.00000000
      1.00000000      1.00000000      1.00000000      1.00000000      1.00000000      1.00000000      1.00000000      1.00000000      1.00000000      1.00000000      1.00000000      1.00000000      1.00000000      1.00000000      1.00000000      1.00000000      1.00000000      1.00000000      1.00000000      1.00000000
      1.00000000      1.00000000      1.00000000      1.00000000      1.00000000      1.00000000      1.00000000</v>
    <i name="NUPDOWN">     -1.00000000</i>
    <i type="logical" name="LSORBIT"> F  </i>
    <v name="SAXIS">      0.00000000      0.00000000      1.00000000</v>
    <i type="logical" name="LSPIRAL"> F  </i>
    <v name="QSPIRAL">      0.00000000      0.00000000      0.00000000</v>
    <i type="logical" name="LZEROZ"> F  </i>
   </separator>
   <separator name="electronic exchange-correlation" >
    <i type="logical" name="LASPH"> F  </i>
    <i type="logical" name="LMETAGGA"> F  </i>
   </separator>
   <separator name="electronic convergence" >
    <i type="int" name="NELM">    60</i>
    <i type="int" name="NELMDL">    -5</i>
    <i type="int" name="NELMIN">     5</i>
    <i name="ENINI">    400.00000000</i>
    <separator name="electronic convergence detail" >
     <i type="logical" name="LDIAG"> T  </i>
     <i type="logical" name="LSUBROT"> F  </i>
     <i name="WEIMIN">      0.00100000</i>
     <i name="EBREAK">      0.00000000</i>
     <i name="DEPER">      0.30000000</i>
     <i type="int" name="NRMM">     4</i>
     <i name="TIME">      0.40000000</i>
    </separator>
   </separator>
   <separator name="electronic mixer" >
    <i name="AMIX">      0.40000000</i>
    <i name="BMIX">      1.00000000</i>
    <i name="AMIN">      0.10000000</i>
    <i name="AMIX_MAG">      1.60000000</i>
    <i name="BMIX_MAG">      1.00000000</i>
    <separator name="electronic mixer details" >
     <i type="int" name="IMIX">     4</i>
     <i type="logical" name="MIXFIRST"> F  </i>
     <i type="int" name="MAXMIX">   -45</i>
     <i name="WC">    100.00000000</i>
     <i type="int" name="INIMIX">     1</i>
     <i type="int" name="MIXPRE">     1</i>
     <i type="int" name="MREMOVE">     5</i>
    </separator>
   </separator>
   <separator name="electronic dipolcorrection" >
    <i type="logical" name="LDIPOL"> F  </i>
    <i type="logical" name="LMONO"> F  </i>
    <i type="int" name="IDIPOL">     0</i>
    <i name="EPSILON">      1.00000000</i>
    <v name="DIPOL">   -100.00000000   -100.00000000   -100.00000000</v>
    <i name="EFIELD">      0.00000000</i>
   </separator>
  </separator>
  <separator name="grids" >
   <i type="int" name="NGX">    56</i>
   <i type="int" name="NGY">    56</i>
   <i type="int" name="NGZ">   108</i>
   <i type="int" name="NGXF">   112</i>
   <i type="int" name="NGYF">   112</i>
   <i type="int" name="NGZF">   216</i>
   <i type="logical" name="ADDGRID"> F  </i>
  </separator>
  <separator name="ionic" >
   <i type="int" name="NSW">   841</i>
   <i type="int" name="IBRION">     5</i>
   <i type="int" name="MDALGO">     0</i>
   <i type="int" name="ISIF">     2</i>
   <i name="PSTRESS">      0.00000000</i>
   <i name="EDIFFG">      0.00000100</i>
   <i type="int" name="NFREE">     2</i>
   <i name="POTIM">      0.00200000</i>
   <i name="SMASS">     -3.00000000</i>
   <i name="SCALEE">      1.00000000</i>
  </separator>
  <separator name="ionic md" >
   <i name="TEBEG">      0.00010000</i>
   <i name="TEEND">      0.00010000</i>
   <i type="int" name="NBLOCK">     1</i>
   <i type="int" name="KBLOCK">   841</i>
   <i type="int" name="NPACO">   256</i>
   <i name="APACO">     16.00000000</i>
  </separator>
  <separator name="symmetry" >
   <i type="int" name="ISYM">     0</i>
   <i name="SYMPREC">      0.00001000</i>
  </separator>
  <separator name="dos" >
   <i type="int" name="LORBIT">     0</i>
   <v name="RWIGS">     -1.00000000     -1.00000000     -1.00000000</v>
   <i type="int" name="NEDOS">   301</i>
   <i name="EMIN">     10.00000000</i>
   <i name="EMAX">    -10.00000000</i>
   <i name="EFERMI">      0.00000000</i>
  </separator>
  <separator name="writing" >
   <i type="int" name="NWRITE">     2</i>
   <i type="logical" name="LWAVE"> F  </i>
   <i type="logical" name="LDOWNSAMPLE"> F  </i>
   <i type="logical" name="LCHARG"> F  </i>
   <i type="logical" name="LPARD"> F  </i>
   <i type="logical" name="LVTOT"> F  </i>
   <i type="logical" name="LVHAR"> F  </i>
   <i type="logical" name="LELF"> F  </i>
   <i type="logical" name="LOPTICS"> F  </i>
   <v name="STM">      0.00000000      0.00000000      0.00000000      0.00000000      0.00000000      0.00000000      0.00000000</v>
  </separator>
  <separator name="performance" >
   <i type="int" name="NPAR">     8</i>
   <i type="int" name="NSIM">     4</i>
   <i type="int" name="NBLK">    -1</i>
   <i type="logical" name="LPLANE"> T  </i>
   <i type="logical" name="LSCALAPACK"> T  </i>
   <i type="logical" name="LSCAAWARE"> T  </i>
   <i type="logical" name="LSCALU"> F  </i>
   <i type="logical" name="LASYNC"> F  </i>
   <i type="logical" name="LORBITALREAL"> F  </i>
  </separator>
  <separator name="miscellaneous" >
   <i type="int" name="IDIOT">     3</i>
   <i type="int" name="ISPECIAL">     0</i>
   <i type="logical" name="LMUSIC"> F  </i>
   <v name="POMASS">    106.42000000     14.00100000     16.00000000</v>
   <v name="DARWINR">      0.00000000      0.00000000      0.00000000</v>
   <v name="DARWINV">      1.00000000      1.00000000      1.00000000</v>
   <i type="logical" name="LCORR"> T  </i>
  </separator>
  <i type="logical" name="GGA_COMPAT"> T  </i>
  <i type="logical" name="LBERRY"> F  </i>
  <i type="int" name="ICORELEVEL">     0</i>
  <i type="logical" name="LDAU"> F  </i>
  <i type="int" name="I_CONSTRAINED_M">     0</i>
  <separator name="electronic exchange-correlation" >
   <i type="string" name="GGA">--</i>
   <i type="int" name="VOSKOWN">     0</i>
   <i type="logical" name="LHFCALC"> F  </i>
   <i type="string" name="PRECFOCK"></i>
   <i type="logical" name="LSYMGRAD"> F  </i>
   <i type="logical" name="LHFONE"> F  </i>
   <i type="logical" name="LRHFCALC"> F  </i>
   <i type="logical" name="LTHOMAS"> F  </i>
   <i type="logical" name="LMODELHF"> F  </i>
   <i name="ENCUT4O">     -1.00000000</i>
   <i type="int" name="EXXOEP">     0</i>
   <i type="int" name="FOURORBIT">     0</i>
   <i name="AEXX">      0.00000000</i>
   <i name="HFALPHA">      0.00000000</i>
   <i name="MCALPHA">      0.00000000</i>
   <i name="ALDAX">      1.00000000</i>
   <i name="AGGAX">      1.00000000</i>
   <i name="ALDAC">      1.00000000</i>
   <i name="AGGAC">      1.00000000</i>
   <i type="int" name="NKREDX">     1</i>
   <i type="int" name="NKREDY">     1</i>
   <i type="int" name="NKREDZ">     1</i>
   <i type="logical" name="SHIFTRED"> F  </i>
   <i type="logical" name="ODDONLY"> F  </i>
   <i type="logical" name="EVENONLY"> F  </i>
   <i type="int" name="LMAXFOCK">     0</i>
   <i type="int" name="NMAXFOCKAE">     0</i>
   <i type="logical" name="LFOCKAEDFT"> F  </i>
   <i name="HFSCREEN">      0.00000000</i>
   <i name="HFSCREENC">      0.00000000</i>
   <i type="int" name="NBANDSGWLOW">     0</i>
  </separator>
  <separator name="vdW DFT" >
   <i type="logical" name="LUSE_VDW"> F  </i>
   <i name="Zab_VDW">     -0.84910000</i>
   <i name="PARAM1">      0.12340000</i>
   <i name="PARAM2">      1.00000000</i>
   <i name="PARAM3">      0.00000000</i>
  </separator>
  <separator name="model GW" >
   <i type="int" name="MODEL_GW">     0</i>
   <i name="MODEL_EPS0">     21.02380717</i>
   <i name="MODEL_ALPHA">      1.00000000</i>
  </separator>
  <separator name="linear response parameters" >
   <i type="logical" name="LEPSILON"> F  </i>
   <i type="logical" name="LRPA"> F  </i>
   <i type="logical" name="LNABLA"> F  </i>
   <i type="logical" name="LVEL"> F  </i>
   <i type="int" name="KINTER">     0</i>
   <i name="CSHIFT">      0.10000000</i>
   <i name="OMEGAMAX">     -1.00000000</i>
   <i name="DEG_THRESHOLD">      0.00200000</i>
   <i name="RTIME">     -0.10000000</i>
   <i name="WPLASMAI">      0.00000000</i>
   <v name="DFIELD">      0.00000000      0.00000000      0.00000000</v>
   <v name="WPLASMA">      0.00000000      0.00000000      0.00000000      0.00000000      0.00000000      0.00000000      0.00000000      0.00000000      0.00000000</v>
  </separator>
  <separator name="orbital magnetization" >
   <i type="logical" name="NUCIND"> F  </i>
   <v name="MAGPOS">      0.00000000      0.00000000      0.00000000</v>
   <i type="logical" name="LNICSALL"> T  </i>
   <i type="logical" name="ORBITALMAG"> F  </i>
   <i type="logical" name="LMAGBLOCH"> F  </i>
   <i type="logical" name="LCHIMAG"> F  </i>
   <i type="logical" name="LGAUGE"> T  </i>
   <i type="int" name="MAGATOM">     0</i>
   <v name="MAGDIPOL">      0.00000000      0.00000000      0.00000000</v>
   <v name="AVECCONST">      0.00000000      0.00000000      0.00000000</v>
  </separator>
  <separator name="response functions" >
   <i type="logical" name="LADDER"> F  </i>
   <i type="logical" name="LRPAFORCE"> F  </i>
   <i type="logical" name="LFXC"> F  </i>
   <i type="logical" name="LHARTREE"> T  </i>
   <i type="int" name="IBSE">     0</i>
   <v type="int" name="KPOINT">    -1     0     0     0</v>
   <i type="logical" name="LTCTE"> F  </i>
   <i type="logical" name="LTETE"> F  </i>
   <i type="logical" name="LTRIPLET"> F  </i>
   <i type="logical" name="LFXCEPS"> F  </i>
   <i type="logical" name="LFXHEG"> F  </i>
   <i type="int" name="NATURALO">     2</i>
   <i type="logical" name="L2ORDER"> F  </i>
   <i type="logical" name="LMP2LT"> F  </i>
   <i type="logical" name="LUSEW"> F  </i>
   <i name="ENCUTGW">     -2.00000000</i>
   <i name="ENCUTGWSOFT">     -2.00000000</i>
   <i name="ENCUTLF">     -1.00000000</i>
   <i type="int" name="LMAXMP2">    -1</i>
   <i name="SCISSOR">      0.00000000</i>
   <i type="int" name="NOMEGA">     0</i>
   <i type="int" name="NOMEGAR">     0</i>
   <i type="int" name="NBANDSGW">    -1</i>
   <i type="int" name="NBANDSO">    -1</i>
   <i type="int" name="NBANDSV">    -1</i>
   <i type="int" name="NELM">     1</i>
   <i type="int" name="NELMHF">     1</i>
   <i type="int" name="DIM">     3</i>
   <i type="int" name="ANTIRES">     0</i>
   <i name="OMEGAMAX">    -30.00000000</i>
   <i name="OMEGAMIN">    -30.00000000</i>
   <i name="OMEGATL">   -200.00000000</i>
   <i type="int" name="OMEGAGRID">   140</i>
   <i name="CSHIFT">     -0.10000000</i>
   <i type="logical" name="SELFENERGY"> F  </i>
   <i type="logical" name="LSPECTRAL"> F  </i>
   <i type="logical" name="LSPECTRALGW"> F  </i>
   <i type="logical" name="LSINGLES"> F  </i>
   <i type="logical" name="LFERMIGW"> F  </i>
   <i type="logical" name="ODDONLYGW"> F  </i>
   <i type="logical" name="EVENONLYGW"> F  </i>
   <i type="int" name="NKREDLFX">     1</i>
   <i type="int" name="NKREDLFY">     1</i>
   <i type="int" name="NKREDLFZ">     1</i>
   <i type="int" name="MAXMEM">  2800</i>
   <i type="int" name="TELESCOPE">     0</i>
   <i type="int" name="TAUPAR">     1</i>
   <i type="int" name="OMEGAPAR">    -1</i>
   <i name="LAMBDA">      1.00000000</i>
  </separator>
  <separator name="External order field" >
   <i name="OFIELD_KAPPA">      0.00000000</i>
   <v name="OFIELD_K">      0.00000000      0.00000000      0.00000000</v>
   <i name="OFIELD_Q6_NEAR">      0.00000000</i>
   <i name="OFIELD_Q6_FAR">      0.00000000</i>
   <i name="OFIELD_A">      0.00000000</i>
  </separator>
  <separator name="solvation model" >
   <i type="logical" name="LSOL"> F  </i>
  </separator>
 </parameters>
 <atominfo>
  <atoms>      67 </atoms>
  <types>       3 </types>
  <array name="atoms" >
   <dimension dim="1">ion</dimension>
   <field type="string">element</field>
   <field type="int">atomtype</field>
   <set>
    <rc><c>Pd</c><c>   1</c></rc>
    <rc><c>Pd</c><c>   1</c></rc>
    <rc><c>Pd</c><c>   1</c></rc>
    <rc><c>Pd</c><c>   1</c></rc>
    <rc><c>Pd</c><c>   1</c></rc>
    <rc><c>Pd</c><c>   1</c></rc>
    <rc><c>Pd</c><c>   1</c></rc>
    <rc><c>Pd</c><c>   1</c></rc>
    <rc><c>Pd</c><c>   1</c></rc>
    <rc><c>Pd</c><c>   1</c></rc>
    <rc><c>Pd</c><c>   1</c></rc>
    <rc><c>Pd</c><c>   1</c></rc>
    <rc><c>Pd</c><c>   1</c></rc>
    <rc><c>Pd</c><c>   1</c></rc>
    <rc><c>Pd</c><c>   1</c></rc>
    <rc><c>Pd</c><c>   1</c></rc>
    <rc><c>Pd</c><c>   1</c></rc>
    <rc><c>Pd</c><c>   1</c></rc>
    <rc><c>Pd</c><c>   1</c></rc>
    <rc><c>Pd</c><c>   1</c></rc>
    <rc><c>Pd</c><c>   1</c></rc>
    <rc><c>Pd</c><c>   1</c></rc>
    <rc><c>Pd</c><c>   1</c></rc>
    <rc><c>Pd</c><c>   1</c></rc>
    <rc><c>Pd</c><c>   1</c></rc>
    <rc><c>Pd</c><c>   1</c></rc>
    <rc><c>Pd</c><c>   1</c></rc>
    <rc><c>Pd</c><c>   1</c></rc>
    <rc><c>Pd</c><c>   1</c></rc>
    <rc><c>Pd</c><c>   1</c></rc>
    <rc><c>Pd</c><c>   1</c></rc>
    <rc><c>Pd</c><c>   1</c></rc>
    <rc><c>Pd</c><c>   1</c></rc>
    <rc><c>Pd</c><c>   1</c></rc>
    <rc><c>Pd</c><c>   1</c></rc>
    <rc><c>Pd</c><c>   1</c></rc>
    <rc><c>Pd</c><c>   1</c></rc>
    <rc><c>Pd</c><c>   1</c></rc>
    <rc><c>Pd</c><c>   1</c></rc>
    <rc><c>Pd</c><c>   1</c></rc>
    <rc><c>Pd</c><c>   1</c></rc>
    <rc><c>Pd</c><c>   1</c></rc>
    <rc><c>Pd</c><c>   1</c></rc>
    <rc><c>Pd</c><c>   1</c></rc>
    <rc><c>Pd</c><c>   1</c></rc>
    <rc><c>Pd</c><c>   1</c></rc>
    <rc><c>Pd</c><c>   1</c></rc>
    <rc><c>Pd</c><c>   1</c></rc>
    <rc><c>Pd</c><c>   1</c></rc>
    <rc><c>Pd</c><c>   1</c></rc>
    <rc><c>Pd</c><c>   1</c></rc>
    <rc><c>Pd</c><c>   1</c></rc>
    <rc><c>Pd</c><c>   1</c></rc>
    <rc><c>Pd</c><c>   1</c></rc>
    <rc><c>Pd</c><c>   1</c></rc>
    <rc><c>Pd</c><c>   1</c></rc>
    <rc><c>Pd</c><c>   1</c></rc>
    <rc><c>Pd</c><c>   1</c></rc>
    <rc><c>Pd</c><c>   1</c></rc>
    <rc><c>Pd</c><c>   1</c></rc>
    <rc><c>Pd</c><c>   1</c></rc>
    <rc><c>Pd</c><c>   1</c></rc>
    <rc><c>Pd</c><c>   1</c></rc>
    <rc><c>Pd</c><c>   1</c></rc>
    <rc><c>N </c><c>   2</c></rc>
    <rc><c>N </c><c>   2</c></rc>
    <rc><c>O </c><c>   3</c></rc>
   </set>
  </array>
  <array name="atomtypes" >
   <dimension dim="1">type</dimension>
   <field type="int">atomspertype</field>
   <field type="string">element</field>
   <field>mass</field>
   <field>valence</field>
   <field type="string">pseudopotential</field>
   <set>
    <rc><c>  64</c><c>Pd</c><c>    106.42000000</c><c>     10.00000000</c><c>  PAW_PBE Pd 04Jan2005                  </c></rc>
    <rc><c>   2</c><c>N </c><c>     14.00100000</c><c>      5.00000000</c><c>  PAW_PBE N 08Apr2002                   </c></rc>
    <rc><c>   1</c><c>O </c><c>     16.00000000</c><c>      6.00000000</c><c>  PAW_PBE O 08Apr2002                   </c></rc>
   </set>
  </array>
 </atominfo>
 <structure name="initialpos" >
  <crystal>
   <varray name="basis" >
    <v>      11.14491190       0.00000000       0.00000000 </v>
    <v>       5.57245595       9.65177683       0.00000000 </v>
    <v>       0.00000000       0.00000000      21.82483685 </v>
   </varray>
   <i name="volume">   2347.65846769 </i>
   <varray name="rec_basis" >
    <v>       0.08972704      -0.05180393       0.00000000 </v>
    <v>       0.00000000       0.10360787       0.00000000 </v>
    <v>       0.00000000       0.00000000       0.04581936 </v>
   </varray>
  </crystal>
  <varray name="positions" >
   <v>       0.00000000       0.00000000       0.34364518 </v>
   <v>       0.25000000       0.00000000       0.34364518 </v>
   <v>       0.50000000       0.00000000       0.34364518 </v>
   <v>       0.75000000       0.00000000       0.34364518 </v>
   <v>       0.00000000       0.25000000       0.34364518 </v>
   <v>       0.25000000       0.25000000       0.34364518 </v>
   <v>       0.50000000       0.25000000       0.34364518 </v>
   <v>       0.75000000       0.25000000       0.34364518 </v>
   <v>       0.00000000       0.50000000       0.34364518 </v>
   <v>       0.25000000       0.50000000       0.34364518 </v>
   <v>       0.50000000       0.50000000       0.34364518 </v>
   <v>       0.75000000       0.50000000       0.34364518 </v>
   <v>       0.00000000       0.75000000       0.34364518 </v>
   <v>       0.25000000       0.75000000       0.34364518 </v>
   <v>       0.50000000       0.75000000       0.34364518 </v>
   <v>       0.75000000       0.75000000       0.34364518 </v>
   <v>       0.08333333       0.08333333       0.44788173 </v>
   <v>       0.33333333       0.08333333       0.44788173 </v>
   <v>       0.58333333       0.08333333       0.44788173 </v>
   <v>       0.83333333       0.08333333       0.44788173 </v>
   <v>       0.08333333       0.33333333       0.44788173 </v>
   <v>       0.33333333       0.33333333       0.44788173 </v>
   <v>       0.58333333       0.33333333       0.44788173 </v>
   <v>       0.83333333       0.33333333       0.44788173 </v>
   <v>       0.08333333       0.58333333       0.44788173 </v>
   <v>       0.33333333       0.58333333       0.44788173 </v>
   <v>       0.58333333       0.58333333       0.44788173 </v>
   <v>       0.83333333       0.58333333       0.44788173 </v>
   <v>       0.08333333       0.83333333       0.44788173 </v>
   <v>       0.33333333       0.83333333       0.44788173 </v>
   <v>       0.58333333       0.83333333       0.44788173 </v>
   <v>       0.83333333       0.83333333       0.44788173 </v>
   <v>       0.91666667       0.16666667       0.55312823 </v>
   <v>       0.16666667       0.16666667       0.55312823 </v>
   <v>       0.41666667       0.16666667       0.55312823 </v>
   <v>       0.66666667       0.16666667       0.55312823 </v>
   <v>       0.91666667       0.41666667       0.55312823 </v>
   <v>       0.16666667       0.41666667       0.55312823 </v>
   <v>       0.41666667       0.41666667       0.55312823 </v>
   <v>       0.66666667       0.41666667       0.55312823 </v>
   <v>       0.91666667       0.66666667       0.55312823 </v>
   <v>       0.16666667       0.66666667       0.55312823 </v>
   <v>       0.41666667       0.66666667       0.55312823 </v>
   <v>       0.66666667       0.66666667       0.55312823 </v>
   <v>       0.91666667       0.91666667       0.55312823 </v>
   <v>       0.16666667       0.91666667       0.55312823 </v>
   <v>       0.41666667       0.91666667       0.55312823 </v>
   <v>       0.66666667       0.91666667       0.55312823 </v>
   <v>       0.00000000       0.00000000       0.65939211 </v>
   <v>       0.25000000       0.00000000       0.65939211 </v>
   <v>       0.50000000       0.00000000       0.65939211 </v>
   <v>       0.75000000       0.00000000       0.65939211 </v>
   <v>       0.00000000       0.25000000       0.65939211 </v>
   <v>       0.25000000       0.25000000       0.65939211 </v>
   <v>       0.50000000       0.25000000       0.65939211 </v>
   <v>       0.75000000       0.25000000       0.65939211 </v>
   <v>       0.00000000       0.50000000       0.65939211 </v>
   <v>       0.25000000       0.50000000       0.65939211 </v>
   <v>       0.50000000       0.50000000       0.65939211 </v>
   <v>       0.75000000       0.50000000       0.65939211 </v>
   <v>       0.00000000       0.75000000       0.65939211 </v>
   <v>       0.25000000       0.75000000       0.65939211 </v>
   <v>       0.50000000       0.75000000       0.65939211 </v>
   <v>       0.75000000       0.75000000       0.65939211 </v>
   <v>       0.24605750       0.00392377       0.75272840 </v>
   <v>       0.14211391       0.04286646       0.78020695 </v>
   <v>       0.99965657       0.10579167       0.74216934 </v>
  </varray>
  <varray name="selective"  type="logical" >
   <v type="logical" >  F  F  F </v>
   <v type="logical" >  F  F  F </v>
   <v type="logical" >  F  F  F </v>
   <v type="logical" >  F  F  F </v>
   <v type="logical" >  F  F  F </v>
   <v type="logical" >  F  F  F </v>
   <v type="logical" >  F  F  F </v>
   <v type="logical" >  F  F  F </v>
   <v type="logical" >  F  F  F </v>
   <v type="logical" >  F  F  F </v>
   <v type="logical" >  F  F  F </v>
   <v type="logical" >  F  F  F </v>
   <v type="logical" >  F  F  F </v>
   <v type="logical" >  F  F  F </v>
   <v type="logical" >  F  F  F </v>
   <v type="logical" >  F  F  F </v>
   <v type="logical" >  F  F  F </v>
   <v type="logical" >  F  F  F </v>
   <v type="logical" >  F  F  F </v>
   <v type="logical" >  F  F  F </v>
   <v type="logical" >  F  F  F </v>
   <v type="logical" >  F  F  F </v>
   <v type="logical" >  F  F  F </v>
   <v type="logical" >  F  F  F </v>
   <v type="logical" >  F  F  F </v>
   <v type="logical" >  F  F  F </v>
   <v type="logical" >  F  F  F </v>
   <v type="logical" >  F  F  F </v>
   <v type="logical" >  F  F  F </v>
   <v type="logical" >  F  F  F </v>
   <v type="logical" >  F  F  F </v>
   <v type="logical" >  F  F  F </v>
   <v type="logical" >  F  F  F </v>
   <v type="logical" >  F  F  F </v>
   <v type="logical" >  F  F  F </v>
   <v type="logical" >  F  F  F </v>
   <v type="logical" >  F  F  F </v>
   <v type="logical" >  F  F  F </v>
   <v type="logical" >  F  F  F </v>
   <v type="logical" >  F  F  F </v>
   <v type="logical" >  F  F  F </v>
   <v type="logical" >  F  F  F </v>
   <v type="logical" >  F  F  F </v>
   <v type="logical" >  F  F  F </v>
   <v type="logical" >  F  F  F </v>
   <v type="logical" >  F  F  F </v>
   <v type="logical" >  F  F  F </v>
   <v type="logical" >  F  F  F </v>
   <v type="logical" >  F  F  F </v>
   <v type="logical" >  F  F  F </v>
   <v type="logical" >  F  F  F </v>
   <v type="logical" >  F  F  F </v>
   <v type="logical" >  F  F  F </v>
   <v type="logical" >  F  F  F </v>
   <v type="logical" >  F  F  F </v>
   <v type="logical" >  F  F  F </v>
   <v type="logical" >  F  F  F </v>
   <v type="logical" >  F  F  F </v>
   <v type="logical" >  F  F  F </v>
   <v type="logical" >  F  F  F </v>
   <v type="logical" >  F  F  F </v>
   <v type="logical" >  F  F  F </v>
   <v type="logical" >  F  F  F </v>
   <v type="logical" >  F  F  F </v>
   <v type="logical" >  T  T  T </v>
   <v type="logical" >  T  T  T </v>
   <v type="logical" >  T  T  T </v>
  </varray>
  <nose>
   <v>      -3.00000000       0.00000000       0.00010000       0.00010000 </v>
  </nose>
 </structure>
 <calculation>
  <scstep>
   <time name="dav">    5.82    5.86</time>
   <time name="total">    5.85    5.90</time>
   <energy>
    <i name="alphaZ">   1184.06556306 </i>
    <i name="ewald"> 164832.67770576 </i>
    <i name="hartreedc">-220079.99871734 </i>
    <i name="XCdc">  -1822.94932208 </i>
    <i name="pawpsdc">  52387.66707066 </i>
    <i name="pawaedc"> -48409.62114609 </i>
    <i name="eentropy">     -0.00999279 </i>
    <i name="bandstr">   2939.98841711 </i>
    <i name="atom">  52784.82232594 </i>
    <i name="e_fr_energy">   3816.64190422 </i>
    <i name="e_wo_entrp">   3816.65189701 </i>
    <i name="e_0_energy">   3816.64523515 </i>
   </energy>
  </scstep>
  <scstep>
   <time name="dav">    6.24    6.24</time>
   <time name="total">    6.24    6.24</time>
   <energy>
    <i name="e_fr_energy">   -121.09498868 </i>
    <i name="e_wo_entrp">   -121.12555284 </i>
    <i name="e_0_energy">   -121.10517673 </i>
   </energy>
  </scstep>
  <scstep>
   <time name="dav">    6.26    6.26</time>
   <time name="total">    6.26    6.26</time>
   <energy>
    <i name="e_fr_energy">   -345.78255982 </i>
    <i name="e_wo_entrp">   -345.63952715 </i>
    <i name="e_0_energy">   -345.73488226 </i>
   </energy>
  </scstep>
  <scstep>
   <time name="dav">    6.48    6.50</time>
   <time name="total">    6.48    6.50</time>
   <energy>
    <i name="e_fr_energy">   -354.23487228 </i>
    <i name="e_wo_entrp">   -354.05920164 </i>
    <i name="e_0_energy">   -354.17631540 </i>
   </energy>
  </scstep>
  <scstep>
   <time name="dav">    7.64    7.65</time>
   <time name="total">    7.75    7.78</time>
   <energy>
    <i name="e_fr_energy">   -354.56057930 </i>
    <i name="e_wo_entrp">   -354.38250849 </i>
    <i name="e_0_energy">   -354.50122237 </i>
   </energy>
  </scstep>
  <scstep>
   <time name="dav">    6.39    6.46</time>
   <time name="total">    6.52    6.59</time>
   <energy>
    <i name="e_fr_energy">   -340.80163304 </i>
    <i name="e_wo_entrp">   -340.52638576 </i>
    <i name="e_0_energy">   -340.70988395 </i>
   </energy>
  </scstep>
  <scstep>
   <time name="dav">    7.35    7.35</time>
   <time name="total">    7.49    7.49</time>
   <energy>
    <i name="e_fr_energy">   -352.90656296 </i>
    <i name="e_wo_entrp">   -352.75577623 </i>
    <i name="e_0_energy">   -352.85630071 </i>
   </energy>
  </scstep>
  <scstep>
   <time name="dav">    6.04    6.04</time>
   <time name="total">    6.16    6.18</time>
   <energy>
    <i name="e_fr_energy">   -357.43505416 </i>
    <i name="e_wo_entrp">   -357.26840170 </i>
    <i name="e_0_energy">   -357.37950334 </i>
   </energy>
  </scstep>
  <scstep>
   <time name="dav">    6.25    6.25</time>
   <time name="total">    6.38    6.39</time>
   <energy>
    <i name="e_fr_energy">   -353.78591075 </i>
    <i name="e_wo_entrp">   -353.63814620 </i>
    <i name="e_0_energy">   -353.73665590 </i>
   </energy>
  </scstep>
  <scstep>
   <time name="dav">    5.94    5.94</time>
   <time name="total">    6.06    6.06</time>
   <energy>
    <i name="e_fr_energy">   -345.92337211 </i>
    <i name="e_wo_entrp">   -345.72706274 </i>
    <i name="e_0_energy">   -345.85793565 </i>
   </energy>
  </scstep>
  <scstep>
   <time name="dav">    5.93    5.93</time>
   <time name="total">    6.05    6.05</time>
   <energy>
    <i name="e_fr_energy">   -340.03211867 </i>
    <i name="e_wo_entrp">   -339.84874779 </i>
    <i name="e_0_energy">   -339.97099504 </i>
   </energy>
  </scstep>
  <scstep>
   <time name="dav">    5.94    5.94</time>
   <time name="total">    6.06    6.06</time>
   <energy>
    <i name="e_fr_energy">   -339.05029546 </i>
    <i name="e_wo_entrp">   -338.85296577 </i>
    <i name="e_0_energy">   -338.98451890 </i>
   </energy>
  </scstep>
  <scstep>
   <time name="dav">    5.93    5.94</time>
   <time name="total">    6.06    6.06</time>
   <energy>
    <i name="e_fr_energy">   -337.09798322 </i>
    <i name="e_wo_entrp">   -336.76294045 </i>
    <i name="e_0_energy">   -336.98630230 </i>
   </energy>
  </scstep>
  <scstep>
   <time name="dav">    5.97    5.97</time>
   <time name="total">    6.09    6.09</time>
   <energy>
    <i name="e_fr_energy">   -337.10462153 </i>
    <i name="e_wo_entrp">   -336.82224595 </i>
    <i name="e_0_energy">   -337.01049634 </i>
   </energy>
  </scstep>
  <scstep>
   <time name="dav">    5.96    5.96</time>
   <time name="total">    6.08    6.09</time>
   <energy>
    <i name="e_fr_energy">   -336.82301298 </i>
    <i name="e_wo_entrp">   -336.49507504 </i>
    <i name="e_0_energy">   -336.71370033 </i>
   </energy>
  </scstep>
  <scstep>
   <time name="dav">    5.98    5.98</time>
   <time name="total">    6.10    6.10</time>
   <energy>
    <i name="e_fr_energy">   -336.69743273 </i>
    <i name="e_wo_entrp">   -336.35253539 </i>
    <i name="e_0_energy">   -336.58246695 </i>
   </energy>
  </scstep>
  <scstep>
   <time name="dav">    5.92    5.92</time>
   <time name="total">    6.04    6.04</time>
   <energy>
    <i name="e_fr_energy">   -336.64939802 </i>
    <i name="e_wo_entrp">   -336.28921546 </i>
    <i name="e_0_energy">   -336.52933717 </i>
   </energy>
  </scstep>
  <scstep>
   <time name="dav">    6.02    6.02</time>
   <time name="total">    6.14    6.16</time>
   <energy>
    <i name="e_fr_energy">   -336.58325903 </i>
    <i name="e_wo_entrp">   -336.19807875 </i>
    <i name="e_0_energy">   -336.45486560 </i>
   </energy>
  </scstep>
  <scstep>
   <time name="dav">    5.94    5.95</time>
   <time name="total">    6.07    6.09</time>
   <energy>
    <i name="e_fr_energy">   -336.55079541 </i>
    <i name="e_wo_entrp">   -336.16653706 </i>
    <i name="e_0_energy">   -336.42270930 </i>
   </energy>
  </scstep>
  <scstep>
   <time name="dav">    6.22    6.22</time>
   <time name="total">    6.35    6.35</time>
   <energy>
    <i name="e_fr_energy">   -336.53446164 </i>
    <i name="e_wo_entrp">   -336.16384923 </i>
    <i name="e_0_energy">   -336.41092417 </i>
   </energy>
  </scstep>
  <scstep>
   <time name="dav">    5.86    5.87</time>
   <time name="total">    5.99    5.99</time>
   <energy>
    <i name="e_fr_energy">   -336.51780606 </i>
    <i name="e_wo_entrp">   -336.14519490 </i>
    <i name="e_0_energy">   -336.39360234 </i>
   </energy>
  </scstep>
  <scstep>
   <time name="dav">    5.87    5.87</time>
   <time name="total">    5.99    6.00</time>
   <energy>
    <i name="e_fr_energy">   -336.51422534 </i>
    <i name="e_wo_entrp">   -336.14088996 </i>
    <i name="e_0_energy">   -336.38978021 </i>
   </energy>
  </scstep>
  <scstep>
   <time name="dav">    5.89    5.90</time>
   <time name="total">    6.01    6.02</time>
   <energy>
    <i name="e_fr_energy">   -336.51395567 </i>
    <i name="e_wo_entrp">   -336.14220914 </i>
    <i name="e_0_energy">   -336.39004016 </i>
   </energy>
  </scstep>
  <scstep>
   <time name="dav">    5.94    5.95</time>
   <time name="total">    6.07    6.07</time>
   <energy>
    <i name="e_fr_energy">   -336.51316240 </i>
    <i name="e_wo_entrp">   -336.14150948 </i>
    <i name="e_0_energy">   -336.38927809 </i>
   </energy>
  </scstep>
  <scstep>
   <time name="dav">    5.87    5.87</time>
   <time name="total">    6.00    6.00</time>
   <energy>
    <i name="e_fr_energy">   -336.51323008 </i>
    <i name="e_wo_entrp">   -336.14202488 </i>
    <i name="e_0_energy">   -336.38949501 </i>
   </energy>
  </scstep>
  <scstep>
   <time name="dav">    6.92    7.00</time>
   <time name="total">    7.05    7.12</time>
   <energy>
    <i name="e_fr_energy">   -336.51254673 </i>
    <i name="e_wo_entrp">   -336.14054959 </i>
    <i name="e_0_energy">   -336.38854768 </i>
   </energy>
  </scstep>
  <scstep>
   <time name="dav">    6.03    6.04</time>
   <time name="total">    6.16    6.17</time>
   <energy>
    <i name="e_fr_energy">   -336.51265849 </i>
    <i name="e_wo_entrp">   -336.14087479 </i>
    <i name="e_0_energy">   -336.38873059 </i>
   </energy>
  </scstep>
  <scstep>
   <time name="dav">    5.83    5.83</time>
   <time name="total">    5.96    5.97</time>
   <energy>
    <i name="e_fr_energy">   -336.51297143 </i>
    <i name="e_wo_entrp">   -336.14131764 </i>
    <i name="e_0_energy">   -336.38908683 </i>
   </energy>
  </scstep>
  <scstep>
   <time name="dav">    5.89    5.90</time>
   <time name="total">    6.02    6.04</time>
   <energy>
    <i name="e_fr_energy">   -336.51322986 </i>
    <i name="e_wo_entrp">   -336.14198259 </i>
    <i name="e_0_energy">   -336.38948077 </i>
   </energy>
  </scstep>
  <scstep>
   <time name="dav">    5.79    5.80</time>
   <time name="total">    5.92    5.92</time>
   <energy>
    <i name="e_fr_energy">   -336.51378008 </i>
    <i name="e_wo_entrp">   -336.14231098 </i>
    <i name="e_0_energy">   -336.38995704 </i>
   </energy>
  </scstep>
  <scstep>
   <time name="dav">    5.85    5.85</time>
   <time name="total">    5.97    5.97</time>
   <energy>
    <i name="e_fr_energy">   -336.51432060 </i>
    <i name="e_wo_entrp">   -336.14254334 </i>
    <i name="e_0_energy">   -336.39039485 </i>
   </energy>
  </scstep>
  <scstep>
   <time name="dav">    5.95    5.96</time>
   <time name="total">    6.08    6.09</time>
   <energy>
    <i name="e_fr_energy">   -336.51459696 </i>
    <i name="e_wo_entrp">   -336.14280518 </i>
    <i name="e_0_energy">   -336.39066636 </i>
   </energy>
  </scstep>
  <scstep>
   <time name="dav">    5.88    5.89</time>
   <time name="total">    6.01    6.01</time>
   <energy>
    <i name="e_fr_energy">   -336.51506079 </i>
    <i name="e_wo_entrp">   -336.14321413 </i>
    <i name="e_0_energy">   -336.39111191 </i>
   </energy>
  </scstep>
  <scstep>
   <time name="dav">    5.99    5.99</time>
   <time name="total">    6.11    6.12</time>
   <energy>
    <i name="e_fr_energy">   -336.51527945 </i>
    <i name="e_wo_entrp">   -336.14341226 </i>
    <i name="e_0_energy">   -336.39132372 </i>
   </energy>
  </scstep>
  <scstep>
   <time name="dav">    5.91    5.92</time>
   <time name="total">    6.04    6.04</time>
   <energy>
    <i name="e_fr_energy">   -336.51562519 </i>
    <i name="e_wo_entrp">   -336.14368116 </i>
    <i name="e_0_energy">   -336.39164385 </i>
   </energy>
  </scstep>
  <scstep>
   <time name="dav">    5.86    5.86</time>
   <time name="total">    5.98    5.98</time>
   <energy>
    <i name="e_fr_energy">   -336.51606362 </i>
    <i name="e_wo_entrp">   -336.14402058 </i>
    <i name="e_0_energy">   -336.39204927 </i>
   </energy>
  </scstep>
  <scstep>
   <time name="dav">    6.01    6.02</time>
   <time name="total">    6.13    6.14</time>
   <energy>
    <i name="e_fr_energy">   -336.51627223 </i>
    <i name="e_wo_entrp">   -336.14432274 </i>
    <i name="e_0_energy">   -336.39228907 </i>
   </energy>
  </scstep>
  <scstep>
   <time name="dav">    6.00    6.00</time>
   <time name="total">    6.12    6.13</time>
   <energy>
    <i name="e_fr_energy">   -336.51637682 </i>
    <i name="e_wo_entrp">   -336.14441565 </i>
    <i name="e_0_energy">   -336.39238977 </i>
   </energy>
  </scstep>
  <scstep>
   <time name="dav">    5.95    5.95</time>
   <time name="total">    6.07    6.09</time>
   <energy>
    <i name="e_fr_energy">   -336.51653339 </i>
    <i name="e_wo_entrp">   -336.14455895 </i>
    <i name="e_0_energy">   -336.39254191 </i>
   </energy>
  </scstep>
  <scstep>
   <time name="dav">    5.94    5.94</time>
   <time name="total">    6.07    6.07</time>
   <energy>
    <i name="e_fr_energy">   -336.51669349 </i>
    <i name="e_wo_entrp">   -336.14472662 </i>
    <i name="e_0_energy">   -336.39270453 </i>
   </energy>
  </scstep>
  <scstep>
   <time name="dav">    5.92    5.92</time>
   <time name="total">    6.04    6.04</time>
   <energy>
    <i name="e_fr_energy">   -336.51683335 </i>
    <i name="e_wo_entrp">   -336.14484682 </i>
    <i name="e_0_energy">   -336.39283784 </i>
   </energy>
  </scstep>
  <scstep>
   <time name="dav">    5.91    5.92</time>
   <time name="total">    6.03    6.04</time>
   <energy>
    <i name="e_fr_energy">   -336.51695554 </i>
    <i name="e_wo_entrp">   -336.14500954 </i>
    <i name="e_0_energy">   -336.39297354 </i>
   </energy>
  </scstep>
  <scstep>
   <time name="dav">    5.92    5.92</time>
   <time name="total">    6.05    6.05</time>
   <energy>
    <i name="e_fr_energy">   -336.51699976 </i>
    <i name="e_wo_entrp">   -336.14503588 </i>
    <i name="e_0_energy">   -336.39301180 </i>
   </energy>
  </scstep>
  <scstep>
   <time name="dav">    5.39    5.39</time>
   <time name="total">    5.51    5.52</time>
   <energy>
    <i name="e_fr_energy">   -336.51705105 </i>
    <i name="e_wo_entrp">   -336.14508566 </i>
    <i name="e_0_energy">   -336.39306259 </i>
   </energy>
  </scstep>
  <scstep>
   <time name="dav">    5.14    5.14</time>
   <time name="total">    5.26    5.27</time>
   <energy>
    <i name="e_fr_energy">   -336.51707191 </i>
    <i name="e_wo_entrp">   -336.14511123 </i>
    <i name="e_0_energy">   -336.39308501 </i>
   </energy>
  </scstep>
  <scstep>
   <time name="dav">    5.93    6.03</time>
   <time name="total">    6.05    6.16</time>
   <energy>
    <i name="e_fr_energy">   -336.51709575 </i>
    <i name="e_wo_entrp">   -336.14512850 </i>
    <i name="e_0_energy">   -336.39310666 </i>
   </energy>
  </scstep>
  <scstep>
   <time name="dav">    4.63    4.64</time>
   <time name="total">    4.76    4.76</time>
   <energy>
    <i name="e_fr_energy">   -336.51710153 </i>
    <i name="e_wo_entrp">   -336.14514375 </i>
    <i name="e_0_energy">   -336.39311560 </i>
   </energy>
  </scstep>
  <scstep>
   <time name="dav">    4.73    4.74</time>
   <time name="total">    4.85    4.86</time>
   <energy>
    <i name="e_fr_energy">   -336.51710787 </i>
    <i name="e_wo_entrp">   -336.14515001 </i>
    <i name="e_0_energy">   -336.39312191 </i>
   </energy>
  </scstep>
  <scstep>
   <time name="dav">    4.28    4.28</time>
   <time name="total">    4.41    4.42</time>
   <energy>
    <i name="e_fr_energy">   -336.51710887 </i>
    <i name="e_wo_entrp">   -336.14515064 </i>
    <i name="e_0_energy">   -336.39312279 </i>
   </energy>
  </scstep>
  <scstep>
   <time name="dav">    4.14    4.14</time>
   <time name="total">    4.27    4.29</time>
   <energy>
    <i name="e_fr_energy">   -336.51711047 </i>
    <i name="e_wo_entrp">   -336.14515226 </i>
    <i name="e_0_energy">   -336.39312440 </i>
   </energy>
  </scstep>
  <scstep>
   <time name="dav">    4.05    4.05</time>
   <time name="total">    4.18    4.18</time>
   <energy>
    <i name="e_fr_energy">   -336.51711059 </i>
    <i name="e_wo_entrp">   -336.14515137 </i>
    <i name="e_0_energy">   -336.39312418 </i>
   </energy>
  </scstep>
  <scstep>
   <time name="dav">    4.07    4.07</time>
   <time name="total">    4.20    4.20</time>
   <energy>
    <i name="e_fr_energy">   -336.51711138 </i>
    <i name="e_wo_entrp">   -336.14515197 </i>
    <i name="e_0_energy">   -336.39312491 </i>
   </energy>
  </scstep>
  <scstep>
   <time name="dav">    4.17    4.18</time>
   <time name="total">    4.30    4.30</time>
   <energy>
    <i name="e_fr_energy">   -336.51711177 </i>
    <i name="e_wo_entrp">   -336.14515102 </i>
    <i name="e_0_energy">   -336.39312486 </i>
   </energy>
  </scstep>
  <scstep>
   <time name="dav">    4.09    4.09</time>
   <time name="total">    4.21    4.22</time>
   <energy>
    <i name="e_fr_energy">   -336.51711200 </i>
    <i name="e_wo_entrp">   -336.14515122 </i>
    <i name="e_0_energy">   -336.39312507 </i>
   </energy>
  </scstep>
  <scstep>
   <time name="dav">    4.13    4.13</time>
   <time name="total">    4.25    4.25</time>
   <energy>
    <i name="e_fr_energy">   -336.51711213 </i>
    <i name="e_wo_entrp">   -336.14515082 </i>
    <i name="e_0_energy">   -336.39312503 </i>
   </energy>
  </scstep>
  <scstep>
   <time name="dav">    4.03    4.04</time>
   <time name="total">    4.16    4.16</time>
   <energy>
    <i name="e_fr_energy">   -336.51711225 </i>
    <i name="e_wo_entrp">   -336.14515124 </i>
    <i name="e_0_energy">   -336.39312524 </i>
   </energy>
  </scstep>
  <scstep>
   <time name="dav">    4.05    4.05</time>
   <time name="total">    4.07    4.07</time>
   <energy>
    <i name="alphaZ">   1184.06556306 </i>
    <i name="ewald"> 164832.67770576 </i>
    <i name="hartreedc">-220067.16381647 </i>
    <i name="XCdc">  -1835.62850760 </i>
    <i name="pawpsdc">  61173.00131240 </i>
    <i name="pawaedc"> -57333.29210055 </i>
    <i name="eentropy">     -0.37196094 </i>
    <i name="bandstr">  -1074.62763388 </i>
    <i name="atom">  52784.82232594 </i>
    <i name="e_fr_energy">   -336.51711229 </i>
    <i name="e_wo_entrp">   -336.14515135 </i>
    <i name="e_0_energy">   -336.39312531 </i>
   </energy>
  </scstep>
  <structure>
   <crystal>
    <varray name="basis" >
     <v>      11.14491190       0.00000000       0.00000000 </v>
     <v>       5.57245595       9.65177683       0.00000000 </v>
     <v>       0.00000000       0.00000000      21.82483685 </v>
    </varray>
    <i name="volume">   2347.65846769 </i>
    <varray name="rec_basis" >
     <v>       0.08972704      -0.05180393       0.00000000 </v>
     <v>       0.00000000       0.10360787       0.00000000 </v>
     <v>       0.00000000       0.00000000       0.04581936 </v>
    </varray>
   </crystal>
   <varray name="positions" >
    <v>       0.00000000       0.00000000       0.34364518 </v>
    <v>       0.25000000       0.00000000       0.34364518 </v>
    <v>       0.50000000       0.00000000       0.34364518 </v>
    <v>       0.75000000       0.00000000       0.34364518 </v>
    <v>       0.00000000       0.25000000       0.34364518 </v>
    <v>       0.25000000       0.25000000       0.34364518 </v>
    <v>       0.50000000       0.25000000       0.34364518 </v>
    <v>       0.75000000       0.25000000       0.34364518 </v>
    <v>       0.00000000       0.50000000       0.34364518 </v>
    <v>       0.25000000       0.50000000       0.34364518 </v>
    <v>       0.50000000       0.50000000       0.34364518 </v>
    <v>       0.75000000       0.50000000       0.34364518 </v>
    <v>       0.00000000       0.75000000       0.34364518 </v>
    <v>       0.25000000       0.75000000       0.34364518 </v>
    <v>       0.50000000       0.75000000       0.34364518 </v>
    <v>       0.75000000       0.75000000       0.34364518 </v>
    <v>       0.08333333       0.08333333       0.44788173 </v>
    <v>       0.33333333       0.08333333       0.44788173 </v>
    <v>       0.58333333       0.08333333       0.44788173 </v>
    <v>       0.83333333       0.08333333       0.44788173 </v>
    <v>       0.08333333       0.33333333       0.44788173 </v>
    <v>       0.33333333       0.33333333       0.44788173 </v>
    <v>       0.58333333       0.33333333       0.44788173 </v>
    <v>       0.83333333       0.33333333       0.44788173 </v>
    <v>       0.08333333       0.58333333       0.44788173 </v>
    <v>       0.33333333       0.58333333       0.44788173 </v>
    <v>       0.58333333       0.58333333       0.44788173 </v>
    <v>       0.83333333       0.58333333       0.44788173 </v>
    <v>       0.08333333       0.83333333       0.44788173 </v>
    <v>       0.33333333       0.83333333       0.44788173 </v>
    <v>       0.58333333       0.83333333       0.44788173 </v>
    <v>       0.83333333       0.83333333       0.44788173 </v>
    <v>       0.91666667       0.16666667       0.55312823 </v>
    <v>       0.16666667       0.16666667       0.55312823 </v>
    <v>       0.41666667       0.16666667       0.55312823 </v>
    <v>       0.66666667       0.16666667       0.55312823 </v>
    <v>       0.91666667       0.41666667       0.55312823 </v>
    <v>       0.16666667       0.41666667       0.55312823 </v>
    <v>       0.41666667       0.41666667       0.55312823 </v>
    <v>       0.66666667       0.41666667       0.55312823 </v>
    <v>       0.91666667       0.66666667       0.55312823 </v>
    <v>       0.16666667       0.66666667       0.55312823 </v>
    <v>       0.41666667       0.66666667       0.55312823 </v>
    <v>       0.66666667       0.66666667       0.55312823 </v>
    <v>       0.91666667       0.91666667       0.55312823 </v>
    <v>       0.16666667       0.91666667       0.55312823 </v>
    <v>       0.41666667       0.91666667       0.55312823 </v>
    <v>       0.66666667       0.91666667       0.55312823 </v>
    <v>       0.00000000       0.00000000       0.65939211 </v>
    <v>       0.25000000       0.00000000       0.65939211 </v>
    <v>       0.50000000       0.00000000       0.65939211 </v>
    <v>       0.75000000       0.00000000       0.65939211 </v>
    <v>       0.00000000       0.25000000       0.65939211 </v>
    <v>       0.25000000       0.25000000       0.65939211 </v>
    <v>       0.50000000       0.25000000       0.65939211 </v>
    <v>       0.75000000       0.25000000       0.65939211 </v>
    <v>       0.00000000       0.50000000       0.65939211 </v>
    <v>       0.25000000       0.50000000       0.65939211 </v>
    <v>       0.50000000       0.50000000       0.65939211 </v>
    <v>       0.75000000       0.50000000       0.65939211 </v>
    <v>       0.00000000       0.75000000       0.65939211 </v>
    <v>       0.25000000       0.75000000       0.65939211 </v>
    <v>       0.50000000       0.75000000       0.65939211 </v>
    <v>       0.75000000       0.75000000       0.65939211 </v>
    <v>       0.24605750       0.00392377       0.75272840 </v>
    <v>       0.14211391       0.04286646       0.78020695 </v>
    <v>       0.99965657       0.10579167       0.74216934 </v>
   </varray>
  </structure>
  <varray name="forces" >
   <v>      -0.01636627      -0.00893384      -0.01820039 </v>
   <v>       0.01806819      -0.01196413      -0.02660341 </v>
   <v>       0.00156161       0.00663230      -0.01970940 </v>
   <v>      -0.00651216       0.00817859      -0.02171958 </v>
   <v>       0.00295068       0.02321063      -0.01753482 </v>
   <v>       0.00224670       0.00238798      -0.00810239 </v>
   <v>      -0.00039320      -0.00307701      -0.01117886 </v>
   <v>      -0.00285645       0.00235352      -0.00993878 </v>
   <v>       0.01100524       0.01226474      -0.02976396 </v>
   <v>      -0.00210507       0.00467159      -0.01761134 </v>
   <v>      -0.00071458       0.00476357      -0.01334708 </v>
   <v>      -0.01104184      -0.00081322      -0.02721792 </v>
   <v>      -0.00367033      -0.01940560      -0.02852556 </v>
   <v>       0.00264387      -0.01073360      -0.00939903 </v>
   <v>      -0.00112770      -0.00785893      -0.02100743 </v>
   <v>       0.00368742      -0.01170426      -0.03162307 </v>
   <v>       0.01057598      -0.00514726       0.21148267 </v>
   <v>      -0.00385666      -0.01623189       0.20874507 </v>
   <v>       0.00376909      -0.01747250       0.19021364 </v>
   <v>      -0.00666718      -0.01493284       0.18659369 </v>
   <v>      -0.02008956       0.01161768       0.16192587 </v>
   <v>       0.00079887       0.00928837       0.19172405 </v>
   <v>      -0.00002513      -0.00198312       0.20151011 </v>
   <v>       0.01281910       0.00694580       0.18328452 </v>
   <v>      -0.00494195       0.00124258       0.17739082 </v>
   <v>      -0.00621516      -0.00391860       0.19110162 </v>
   <v>       0.01501109       0.00242310       0.18737656 </v>
   <v>      -0.00153175      -0.01099978       0.18293795 </v>
   <v>      -0.02238602       0.00864041       0.18293839 </v>
   <v>       0.00880902       0.00958636       0.19090944 </v>
   <v>       0.01573630      -0.00580841       0.12159658 </v>
   <v>       0.00477028       0.00457640       0.16584735 </v>
   <v>      -0.02031823       0.01032242      -0.10828830 </v>
   <v>       0.02539536      -0.00392843       0.01037443 </v>
   <v>       0.00672377      -0.00006645      -0.01446473 </v>
   <v>      -0.00437242       0.02236827      -0.00264255 </v>
   <v>       0.02348221      -0.10212564       0.15196095 </v>
   <v>       0.01523959      -0.00218366       0.00140654 </v>
   <v>      -0.00022199       0.00337513      -0.03013588 </v>
   <v>      -0.01804567      -0.00491204      -0.00303225 </v>
   <v>       0.01340693      -0.00838568       0.00776770 </v>
   <v>       0.00902372      -0.01001313       0.00015966 </v>
   <v>       0.00129789      -0.00496960      -0.00604945 </v>
   <v>      -0.01572594       0.00476075      -0.00935095 </v>
   <v>       0.13216827       0.05519609       0.23846827 </v>
   <v>       0.04543224      -0.02831556      -0.00196958 </v>
   <v>      -0.01910228       0.00306334       0.03728420 </v>
   <v>      -0.01837067       0.01621783      -0.00823783 </v>
   <v>      -0.18728758       0.11130839       0.51333644 </v>
   <v>       0.58194016      -0.21681662       0.15361619 </v>
   <v>       0.11692474      -0.01605687      -0.24318106 </v>
   <v>      -0.13890604      -0.05173277      -0.20176893 </v>
   <v>      -0.22204935       0.13491064       0.23704149 </v>
   <v>       0.08057352       0.13492085      -0.24453651 </v>
   <v>      -0.00489494       0.00293849      -0.18675000 </v>
   <v>      -0.10561409       0.08192460      -0.15742664 </v>
   <v>       0.00822539       0.02379247      -0.20392710 </v>
   <v>       0.00309706      -0.00888040      -0.19025976 </v>
   <v>      -0.00801585       0.00547914      -0.18769950 </v>
   <v>      -0.00793569       0.09840227      -0.19802986 </v>
   <v>      -0.04019359      -0.04264465      -0.19848380 </v>
   <v>      -0.05519670      -0.14340219      -0.25458553 </v>
   <v>       0.07333920      -0.10407970      -0.23899548 </v>
   <v>       0.01062188      -0.00278245      -0.18059043 </v>
   <v>      -0.13196040      -0.06898846      -0.13283408 </v>
   <v>      -0.18371600       0.15348422      -0.10383644 </v>
   <v>       0.03108307      -0.00997926      -0.86843452 </v>
  </varray>
  <varray name="stress" >
   <v>     -28.13152939      -0.56286292      -0.74755174 </v>
   <v>      -0.56286279     -28.65948457       0.34882220 </v>
   <v>      -0.74755168       0.34882219     -12.94298152 </v>
  </varray>
  <energy>
   <i name="e_fr_energy">   -336.51711229 </i>
   <i name="e_wo_entrp">   -336.39312531 </i>
   <i name="e_0_energy">     -0.37196094 </i>
  </energy>
  <time name="totalsc">  339.26  339.95</time>
 </calculation>
 <calculation>
  <scstep>
   <time name="dav">    5.73    5.73</time>
   <time name="total">    5.85    5.86</time>
   <energy>
    <i name="alphaZ">   1184.06556306 </i>
    <i name="ewald"> 164832.13895629 </i>
    <i name="hartreedc">-220066.78200100 </i>
    <i name="XCdc">  -1835.63586468 </i>
    <i name="pawpsdc">  61173.00084791 </i>
    <i name="pawaedc"> -57333.29164218 </i>
    <i name="eentropy">     -0.37185163 </i>
    <i name="bandstr">  -1074.46306406 </i>
    <i name="atom">  52784.82232594 </i>
    <i name="e_fr_energy">   -336.51673036 </i>
    <i name="e_wo_entrp">   -336.14487873 </i>
    <i name="e_0_energy">   -336.39277981 </i>
   </energy>
  </scstep>
  <scstep>
   <time name="dav">    6.10    6.11</time>
   <time name="total">    6.22    6.23</time>
   <energy>
    <i name="e_fr_energy">   -336.51675185 </i>
    <i name="e_wo_entrp">   -336.14429186 </i>
    <i name="e_0_energy">   -336.39259852 </i>
   </energy>
  </scstep>
  <scstep>
   <time name="dav">    6.17    6.17</time>
   <time name="total">    6.29    6.29</time>
   <energy>
    <i name="e_fr_energy">   -336.51680729 </i>
    <i name="e_wo_entrp">   -336.14552219 </i>
    <i name="e_0_energy">   -336.39304559 </i>
   </energy>
  </scstep>
  <scstep>
   <time name="dav">    6.50    6.50</time>
   <time name="total">    6.63    6.65</time>
   <energy>
    <i name="e_fr_energy">   -336.51675371 </i>
    <i name="e_wo_entrp">   -336.14505621 </i>
    <i name="e_0_energy">   -336.39285454 </i>
   </energy>
  </scstep>
  <scstep>
   <time name="dav">    6.17    6.17</time>
   <time name="total">    6.29    6.29</time>
   <energy>
    <i name="e_fr_energy">   -336.51673845 </i>
    <i name="e_wo_entrp">   -336.14466782 </i>
    <i name="e_0_energy">   -336.39271491 </i>
   </energy>
  </scstep>
  <scstep>
   <time name="dav">    6.53    6.53</time>
   <time name="total">    6.65    6.66</time>
   <energy>
    <i name="e_fr_energy">   -336.51673392 </i>
    <i name="e_wo_entrp">   -336.14473455 </i>
    <i name="e_0_energy">   -336.39273413 </i>
   </energy>
  </scstep>
  <scstep>
   <time name="dav">    5.99    6.00</time>
   <time name="total">    6.11    6.12</time>
   <energy>
    <i name="e_fr_energy">   -336.51673181 </i>
    <i name="e_wo_entrp">   -336.14479966 </i>
    <i name="e_0_energy">   -336.39275443 </i>
   </energy>
  </scstep>
  <scstep>
   <time name="dav">    6.05    6.05</time>
   <time name="total">    6.17    6.17</time>
   <energy>
    <i name="e_fr_energy">   -336.51673098 </i>
    <i name="e_wo_entrp">   -336.14471573 </i>
    <i name="e_0_energy">   -336.39272590 </i>
   </energy>
  </scstep>
  <scstep>
   <time name="dav">    5.92    5.92</time>
   <time name="total">    6.05    6.05</time>
   <energy>
    <i name="e_fr_energy">   -336.51672984 </i>
    <i name="e_wo_entrp">   -336.14475356 </i>
    <i name="e_0_energy">   -336.39273775 </i>
   </energy>
  </scstep>
  <scstep>
   <time name="dav">    6.62    6.63</time>
   <time name="total">    6.64    6.65</time>
   <energy>
    <i name="alphaZ">   1184.06556306 </i>
    <i name="ewald"> 164832.13895629 </i>
    <i name="hartreedc">-220066.54828130 </i>
    <i name="XCdc">  -1835.64022815 </i>
    <i name="pawpsdc">  61170.68854377 </i>
    <i name="pawaedc"> -57330.97623075 </i>
    <i name="eentropy">     -0.37196402 </i>
    <i name="bandstr">  -1074.69541461 </i>
    <i name="atom">  52784.82232594 </i>
    <i name="e_fr_energy">   -336.51672978 </i>
    <i name="e_wo_entrp">   -336.14476576 </i>
    <i name="e_0_energy">   -336.39274177 </i>
   </energy>
  </scstep>
  <structure>
   <crystal>
    <varray name="basis" >
     <v>      11.14491190       0.00000000       0.00000000 </v>
     <v>       5.57245595       9.65177683       0.00000000 </v>
     <v>       0.00000000       0.00000000      21.82483685 </v>
    </varray>
    <i name="volume">   2347.65846769 </i>
    <varray name="rec_basis" >
     <v>       0.08972704      -0.05180393       0.00000000 </v>
     <v>       0.00000000       0.10360787       0.00000000 </v>
     <v>       0.00000000       0.00000000       0.04581936 </v>
    </varray>
   </crystal>
   <varray name="positions" >
    <v>       0.00000000       0.00000000       0.34364518 </v>
    <v>       0.25000000       0.00000000       0.34364518 </v>
    <v>       0.50000000       0.00000000       0.34364518 </v>
    <v>       0.75000000       0.00000000       0.34364518 </v>
    <v>       0.00000000       0.25000000       0.34364518 </v>
    <v>       0.25000000       0.25000000       0.34364518 </v>
    <v>       0.50000000       0.25000000       0.34364518 </v>
    <v>       0.75000000       0.25000000       0.34364518 </v>
    <v>       0.00000000       0.50000000       0.34364518 </v>
    <v>       0.25000000       0.50000000       0.34364518 </v>
    <v>       0.50000000       0.50000000       0.34364518 </v>
    <v>       0.75000000       0.50000000       0.34364518 </v>
    <v>       0.00000000       0.75000000       0.34364518 </v>
    <v>       0.25000000       0.75000000       0.34364518 </v>
    <v>       0.50000000       0.75000000       0.34364518 </v>
    <v>       0.75000000       0.75000000       0.34364518 </v>
    <v>       0.08333333       0.08333333       0.44788173 </v>
    <v>       0.33333333       0.08333333       0.44788173 </v>
    <v>       0.58333333       0.08333333       0.44788173 </v>
    <v>       0.83333333       0.08333333       0.44788173 </v>
    <v>       0.08333333       0.33333333       0.44788173 </v>
    <v>       0.33333333       0.33333333       0.44788173 </v>
    <v>       0.58333333       0.33333333       0.44788173 </v>
    <v>       0.83333333       0.33333333       0.44788173 </v>
    <v>       0.08333333       0.58333333       0.44788173 </v>
    <v>       0.33333333       0.58333333       0.44788173 </v>
    <v>       0.58333333       0.58333333       0.44788173 </v>
    <v>       0.83333333       0.58333333       0.44788173 </v>
    <v>       0.08333333       0.83333333       0.44788173 </v>
    <v>       0.33333333       0.83333333       0.44788173 </v>
    <v>       0.58333333       0.83333333       0.44788173 </v>
    <v>       0.83333333       0.83333333       0.44788173 </v>
    <v>       0.91666667       0.16666667       0.55312823 </v>
    <v>       0.16666667       0.16666667       0.55312823 </v>
    <v>       0.41666667       0.16666667       0.55312823 </v>
    <v>       0.66666667       0.16666667       0.55312823 </v>
    <v>       0.91666667       0.41666667       0.55312823 </v>
    <v>       0.16666667       0.41666667       0.55312823 </v>
    <v>       0.41666667       0.41666667       0.55312823 </v>
    <v>       0.66666667       0.41666667       0.55312823 </v>
    <v>       0.91666667       0.66666667       0.55312823 </v>
    <v>       0.16666667       0.66666667       0.55312823 </v>
    <v>       0.41666667       0.66666667       0.55312823 </v>
    <v>       0.66666667       0.66666667       0.55312823 </v>
    <v>       0.91666667       0.91666667       0.55312823 </v>
    <v>       0.16666667       0.91666667       0.55312823 </v>
    <v>       0.41666667       0.91666667       0.55312823 </v>
    <v>       0.66666667       0.91666667       0.55312823 </v>
    <v>       0.00000000       0.00000000       0.65939211 </v>
    <v>       0.25000000       0.00000000       0.65939211 </v>
    <v>       0.50000000       0.00000000       0.65939211 </v>
    <v>       0.75000000       0.00000000       0.65939211 </v>
    <v>       0.00000000       0.25000000       0.65939211 </v>
    <v>       0.25000000       0.25000000       0.65939211 </v>
    <v>       0.50000000       0.25000000       0.65939211 </v>
    <v>       0.75000000       0.25000000       0.65939211 </v>
    <v>       0.00000000       0.50000000       0.65939211 </v>
    <v>       0.25000000       0.50000000       0.65939211 </v>
    <v>       0.50000000       0.50000000       0.65939211 </v>
    <v>       0.75000000       0.50000000       0.65939211 </v>
    <v>       0.00000000       0.75000000       0.65939211 </v>
    <v>       0.25000000       0.75000000       0.65939211 </v>
    <v>       0.50000000       0.75000000       0.65939211 </v>
    <v>       0.75000000       0.75000000       0.65939211 </v>
    <v>       0.24623695       0.00392377       0.75272840 </v>
    <v>       0.14211391       0.04286646       0.78020695 </v>
    <v>       0.99965657       0.10579167       0.74216934 </v>
   </varray>
  </structure>
  <varray name="forces" >
   <v>      -0.01636258      -0.00892041      -0.01833113 </v>
   <v>       0.01803268      -0.01193951      -0.02666281 </v>
   <v>       0.00158881       0.00662378      -0.01972026 </v>
   <v>      -0.00650275       0.00822996      -0.02169062 </v>
   <v>       0.00293943       0.02321480      -0.01761884 </v>
   <v>       0.00223739       0.00241834      -0.00811147 </v>
   <v>      -0.00039219      -0.00307212      -0.01110293 </v>
   <v>      -0.00284584       0.00235096      -0.00990345 </v>
   <v>       0.01098167       0.01227821      -0.02973769 </v>
   <v>      -0.00208251       0.00465830      -0.01756973 </v>
   <v>      -0.00070800       0.00477309      -0.01327579 </v>
   <v>      -0.01106661      -0.00083764      -0.02718181 </v>
   <v>      -0.00369834      -0.01941886      -0.02855750 </v>
   <v>       0.00262721      -0.01074714      -0.00947030 </v>
   <v>      -0.00109632      -0.00789251      -0.02105488 </v>
   <v>       0.00359407      -0.01169054      -0.03161142 </v>
   <v>       0.01051891      -0.00514467       0.21159755 </v>
   <v>      -0.00378017      -0.01616962       0.20875227 </v>
   <v>       0.00373363      -0.01746876       0.19022538 </v>
   <v>      -0.00666086      -0.01494145       0.18659806 </v>
   <v>      -0.02007757       0.01163715       0.16177698 </v>
   <v>       0.00078100       0.00928685       0.19173557 </v>
   <v>      -0.00004849      -0.00196420       0.20149099 </v>
   <v>       0.01282057       0.00698011       0.18325194 </v>
   <v>      -0.00493061       0.00123287       0.17735076 </v>
   <v>      -0.00621400      -0.00388806       0.19109583 </v>
   <v>       0.01500236       0.00243558       0.18740909 </v>
   <v>      -0.00149465      -0.01096386       0.18292364 </v>
   <v>      -0.02239837       0.00864678       0.18280651 </v>
   <v>       0.00875824       0.00952071       0.19093244 </v>
   <v>       0.01570227      -0.00578120       0.12158832 </v>
   <v>       0.00473998       0.00453242       0.16583146 </v>
   <v>      -0.02030706       0.01034969      -0.10833555 </v>
   <v>       0.02537052      -0.00383860       0.01034326 </v>
   <v>       0.00671236      -0.00008660      -0.01451740 </v>
   <v>      -0.00437035       0.02233317      -0.00269308 </v>
   <v>       0.02344430      -0.10214422       0.15196088 </v>
   <v>       0.01525418      -0.00220995       0.00145311 </v>
   <v>      -0.00019773       0.00336358      -0.03014091 </v>
   <v>      -0.01800551      -0.00489214      -0.00308260 </v>
   <v>       0.01341459      -0.00836180       0.00774015 </v>
   <v>       0.00900894      -0.01005051       0.00017318 </v>
   <v>       0.00127406      -0.00491799      -0.00604141 </v>
   <v>      -0.01571038       0.00474516      -0.00930774 </v>
   <v>       0.13222972       0.05521348       0.23854705 </v>
   <v>       0.04563446      -0.02829710      -0.00161767 </v>
   <v>      -0.01873873       0.00277143       0.03690766 </v>
   <v>      -0.01836637       0.01623382      -0.00816755 </v>
   <v>      -0.18701354       0.11111886       0.51272135 </v>
   <v>       0.58244990      -0.21615295       0.15688129 </v>
   <v>       0.11684348      -0.01606153      -0.24313863 </v>
   <v>      -0.13891715      -0.05169682      -0.20178377 </v>
   <v>      -0.22188296       0.13494220       0.23657733 </v>
   <v>       0.08047324       0.13491142      -0.24447766 </v>
   <v>      -0.00480119       0.00293082      -0.18668250 </v>
   <v>      -0.10594586       0.08215197      -0.15800632 </v>
   <v>       0.00820994       0.02378675      -0.20397001 </v>
   <v>       0.00304922      -0.00890484      -0.19023202 </v>
   <v>      -0.00794554       0.00541943      -0.18763408 </v>
   <v>      -0.00793283       0.09834234      -0.19803634 </v>
   <v>      -0.04018443      -0.04264820      -0.19856959 </v>
   <v>      -0.05508401      -0.14321416      -0.25449731 </v>
   <v>       0.07317897      -0.10397317      -0.23884046 </v>
   <v>       0.01066603      -0.00279355      -0.18056073 </v>
   <v>      -0.25024801      -0.02347279      -0.07149426 </v>
   <v>      -0.08407412       0.11620762      -0.17468064 </v>
   <v>       0.04881348      -0.01908417      -0.86056317 </v>
  </varray>
  <varray name="stress" >
   <v>     -28.22092481      -0.52669632      -0.71160740 </v>
   <v>      -0.52669618     -28.67498936       0.33402322 </v>
   <v>      -0.71160741       0.33402319     -12.97527189 </v>
  </varray>
  <energy>
   <i name="e_fr_energy">   -336.51672978 </i>
   <i name="e_wo_entrp">   -336.39274177 </i>
   <i name="e_0_energy">     -0.37196402 </i>
  </energy>
  <time name="totalsc">   71.57   71.67</time>
 </calculation>
 <calculation>
  <scstep>
   <time name="dav">    5.73    5.73</time>
   <time name="total">    5.85    5.87</time>
   <energy>
    <i name="alphaZ">   1184.06556306 </i>
    <i name="ewald"> 164833.21735043 </i>
    <i name="hartreedc">-220067.31185829 </i>
    <i name="XCdc">  -1835.62551561 </i>
    <i name="pawpsdc">  61170.66457620 </i>
    <i name="pawaedc"> -57330.95237616 </i>
    <i name="eentropy">     -0.37218954 </i>
    <i name="bandstr">  -1075.02513379 </i>
    <i name="atom">  52784.82232594 </i>
    <i name="e_fr_energy">   -336.51725778 </i>
    <i name="e_wo_entrp">   -336.14506823 </i>
    <i name="e_0_energy">   -336.39319460 </i>
   </energy>
  </scstep>
  <scstep>
   <time name="dav">    6.08    6.08</time>
   <time name="total">    6.21    6.21</time>
   <energy>
    <i name="e_fr_energy">   -336.51734562 </i>
    <i name="e_wo_entrp">   -336.14640882 </i>
    <i name="e_0_energy">   -336.39370002 </i>
   </energy>
  </scstep>
  <scstep>
   <time name="dav">    6.17    6.17</time>
   <time name="total">    6.29    6.32</time>
   <energy>
    <i name="e_fr_energy">   -336.51754992 </i>
    <i name="e_wo_entrp">   -336.14422869 </i>
    <i name="e_0_energy">   -336.39310951 </i>
   </energy>
  </scstep>
  <scstep>
   <time name="dav">    6.49    6.49</time>
   <time name="total">    6.62    6.62</time>
   <energy>
    <i name="e_fr_energy">   -336.51736859 </i>
    <i name="e_wo_entrp">   -336.14492128 </i>
    <i name="e_0_energy">   -336.39321948 </i>
   </energy>
  </scstep>
  <scstep>
   <time name="dav">    6.19    6.20</time>
   <time name="total">    6.31    6.32</time>
   <energy>
    <i name="e_fr_energy">   -336.51730010 </i>
    <i name="e_wo_entrp">   -336.14551023 </i>
    <i name="e_0_energy">   -336.39337014 </i>
   </energy>
  </scstep>
  <scstep>
   <time name="dav">    6.52    6.52</time>
   <time name="total">    6.64    6.64</time>
   <energy>
    <i name="e_fr_energy">   -336.51727640 </i>
    <i name="e_wo_entrp">   -336.14544010 </i>
    <i name="e_0_energy">   -336.39333096 </i>
   </energy>
  </scstep>
  <scstep>
   <time name="dav">    5.96    5.96</time>
   <time name="total">    6.08    6.08</time>
   <energy>
    <i name="e_fr_energy">   -336.51726597 </i>
    <i name="e_wo_entrp">   -336.14522484 </i>
    <i name="e_0_energy">   -336.39325226 </i>
   </energy>
  </scstep>
  <scstep>
   <time name="dav">    6.00    6.00</time>
   <time name="total">    6.12    6.12</time>
   <energy>
    <i name="e_fr_energy">   -336.51726149 </i>
    <i name="e_wo_entrp">   -336.14540667 </i>
    <i name="e_0_energy">   -336.39330988 </i>
   </energy>
  </scstep>
  <scstep>
   <time name="dav">    5.95    5.95</time>
   <time name="total">    6.08    6.08</time>
   <energy>
    <i name="e_fr_energy">   -336.51725725 </i>
    <i name="e_wo_entrp">   -336.14532032 </i>
    <i name="e_0_energy">   -336.39327827 </i>
   </energy>
  </scstep>
  <scstep>
   <time name="dav">    5.97    5.97</time>
   <time name="total">    6.09    6.10</time>
   <energy>
    <i name="e_fr_energy">   -336.51725665 </i>
    <i name="e_wo_entrp">   -336.14530723 </i>
    <i name="e_0_energy">   -336.39327351 </i>
   </energy>
  </scstep>
  <scstep>
   <time name="dav">    5.71    5.71</time>
   <time name="total">    5.83    5.83</time>
   <energy>
    <i name="e_fr_energy">   -336.51725669 </i>
    <i name="e_wo_entrp">   -336.14529039 </i>
    <i name="e_0_energy">   -336.39326792 </i>
   </energy>
  </scstep>
  <scstep>
   <time name="dav">    4.76    4.76</time>
   <time name="total">    4.88    4.88</time>
   <energy>
    <i name="e_fr_energy">   -336.51725651 </i>
    <i name="e_wo_entrp">   -336.14529706 </i>
    <i name="e_0_energy">   -336.39327003 </i>
   </energy>
  </scstep>
  <scstep>
   <time name="dav">    4.15    4.15</time>
   <time name="total">    4.17    4.19</time>
   <energy>
    <i name="alphaZ">   1184.06556306 </i>
    <i name="ewald"> 164833.21735043 </i>
    <i name="hartreedc">-220067.78160866 </i>
    <i name="XCdc">  -1835.61673130 </i>
    <i name="pawpsdc">  61175.35077838 </i>
    <i name="pawaedc"> -57335.64449104 </i>
    <i name="eentropy">     -0.37196191 </i>
    <i name="bandstr">  -1074.55848145 </i>
    <i name="atom">  52784.82232594 </i>
    <i name="e_fr_energy">   -336.51725656 </i>
    <i name="e_wo_entrp">   -336.14529465 </i>
    <i name="e_0_energy">   -336.39326925 </i>
   </energy>
  </scstep>
  <structure>
   <crystal>
    <varray name="basis" >
     <v>      11.14491190       0.00000000       0.00000000 </v>
     <v>       5.57245595       9.65177683       0.00000000 </v>
     <v>       0.00000000       0.00000000      21.82483685 </v>
    </varray>
    <i name="volume">   2347.65846769 </i>
    <varray name="rec_basis" >
     <v>       0.08972704      -0.05180393       0.00000000 </v>
     <v>       0.00000000       0.10360787       0.00000000 </v>
     <v>       0.00000000       0.00000000       0.04581936 </v>
    </varray>
   </crystal>
   <varray name="positions" >
    <v>       0.00000000       0.00000000       0.34364518 </v>
    <v>       0.25000000       0.00000000       0.34364518 </v>
    <v>       0.50000000       0.00000000       0.34364518 </v>
    <v>       0.75000000       0.00000000       0.34364518 </v>
    <v>       0.00000000       0.25000000       0.34364518 </v>
    <v>       0.25000000       0.25000000       0.34364518 </v>
    <v>       0.50000000       0.25000000       0.34364518 </v>
    <v>       0.75000000       0.25000000       0.34364518 </v>
    <v>       0.00000000       0.50000000       0.34364518 </v>
    <v>       0.25000000       0.50000000       0.34364518 </v>
    <v>       0.50000000       0.50000000       0.34364518 </v>
    <v>       0.75000000       0.50000000       0.34364518 </v>
    <v>       0.00000000       0.75000000       0.34364518 </v>
    <v>       0.25000000       0.75000000       0.34364518 </v>
    <v>       0.50000000       0.75000000       0.34364518 </v>
    <v>       0.75000000       0.75000000       0.34364518 </v>
    <v>       0.08333333       0.08333333       0.44788173 </v>
    <v>       0.33333333       0.08333333       0.44788173 </v>
    <v>       0.58333333       0.08333333       0.44788173 </v>
    <v>       0.83333333       0.08333333       0.44788173 </v>
    <v>       0.08333333       0.33333333       0.44788173 </v>
    <v>       0.33333333       0.33333333       0.44788173 </v>
    <v>       0.58333333       0.33333333       0.44788173 </v>
    <v>       0.83333333       0.33333333       0.44788173 </v>
    <v>       0.08333333       0.58333333       0.44788173 </v>
[...]
       <r>   -18.0938    -0.0000     2.0000 </r>
       <r>   -17.9861    -0.0000     2.0000 </r>
       <r>   -17.8784    -0.0000     2.0000 </r>
       <r>   -17.7707    -0.0005     1.9999 </r>
       <r>   -17.6630    -0.0098     1.9989 </r>
       <r>   -17.5554    -0.0887     1.9893 </r>
       <r>   -17.4477    -0.3456     1.9521 </r>
       <r>   -17.3400    -0.0942     1.9420 </r>
       <r>   -17.2323     2.9079     2.2551 </r>
       <r>   -17.1246     7.4536     3.0578 </r>
       <r>   -17.0169     7.0287     3.8147 </r>
       <r>   -16.9092     2.3365     4.0663 </r>
       <r>   -16.8015    -0.2293     4.0416 </r>
       <r>   -16.6939    -0.3090     4.0083 </r>
       <r>   -16.5862    -0.0699     4.0008 </r>
       <r>   -16.4785    -0.0070     4.0000 </r>
       <r>   -16.3708    -0.0004     4.0000 </r>
       <r>   -16.2631    -0.0000     4.0000 </r>
       <r>   -16.1554    -0.0000     4.0000 </r>
       <r>   -16.0477    -0.0000     4.0000 </r>
       <r>   -15.9400    -0.0000     4.0000 </r>
       <r>   -15.8324    -0.0000     4.0000 </r>
       <r>   -15.7247     0.0000     4.0000 </r>
       <r>   -15.6170     0.0000     4.0000 </r>
       <r>   -15.5093     0.0000     4.0000 </r>
       <r>   -15.4016     0.0000     4.0000 </r>
       <r>   -15.2939     0.0000     4.0000 </r>
       <r>   -15.1862     0.0000     4.0000 </r>
       <r>   -15.0786     0.0000     4.0000 </r>
       <r>   -14.9709     0.0000     4.0000 </r>
       <r>   -14.8632     0.0000     4.0000 </r>
       <r>   -14.7555     0.0000     4.0000 </r>
       <r>   -14.6478     0.0000     4.0000 </r>
       <r>   -14.5401     0.0000     4.0000 </r>
       <r>   -14.4324     0.0000     4.0000 </r>
       <r>   -14.3247     0.0000     4.0000 </r>
       <r>   -14.2171     0.0000     4.0000 </r>
       <r>   -14.1094     0.0000     4.0000 </r>
       <r>   -14.0017     0.0000     4.0000 </r>
       <r>   -13.8940     0.0000     4.0000 </r>
       <r>   -13.7863     0.0000     4.0000 </r>
       <r>   -13.6786     0.0000     4.0000 </r>
       <r>   -13.5709     0.0000     4.0000 </r>
       <r>   -13.4632     0.0000     4.0000 </r>
       <r>   -13.3556     0.0000     4.0000 </r>
       <r>   -13.2479     0.0000     4.0000 </r>
       <r>   -13.1402     0.0000     4.0000 </r>
       <r>   -13.0325     0.0000     4.0000 </r>
       <r>   -12.9248     0.0000     4.0000 </r>
       <r>   -12.8171     0.0000     4.0000 </r>
       <r>   -12.7094     0.0000     4.0000 </r>
       <r>   -12.6017     0.0000     4.0000 </r>
       <r>   -12.4941     0.0000     4.0000 </r>
       <r>   -12.3864     0.0000     4.0000 </r>
       <r>   -12.2787     0.0000     4.0000 </r>
       <r>   -12.1710     0.0000     4.0000 </r>
       <r>   -12.0633     0.0000     4.0000 </r>
       <r>   -11.9556     0.0000     4.0000 </r>
       <r>   -11.8479     0.0000     4.0000 </r>
       <r>   -11.7402     0.0000     4.0000 </r>
       <r>   -11.6326     0.0000     4.0000 </r>
       <r>   -11.5249     0.0000     4.0000 </r>
       <r>   -11.4172     0.0000     4.0000 </r>
       <r>   -11.3095     0.0000     4.0000 </r>
       <r>   -11.2018     0.0000     4.0000 </r>
       <r>   -11.0941     0.0000     4.0000 </r>
       <r>   -10.9864     0.0000     4.0000 </r>
       <r>   -10.8787     0.0000     4.0000 </r>
       <r>   -10.7711     0.0000     4.0000 </r>
       <r>   -10.6634     0.0000     4.0000 </r>
       <r>   -10.5557     0.0000     4.0000 </r>
       <r>   -10.4480     0.0000     4.0000 </r>
       <r>   -10.3403    -0.0000     4.0000 </r>
       <r>   -10.2326    -0.0000     4.0000 </r>
       <r>   -10.1249    -0.0000     4.0000 </r>
       <r>   -10.0173    -0.0000     4.0000 </r>
       <r>    -9.9096    -0.0000     4.0000 </r>
       <r>    -9.8019    -0.0000     4.0000 </r>
       <r>    -9.6942    -0.0000     4.0000 </r>
       <r>    -9.5865    -0.0000     4.0000 </r>
       <r>    -9.4788    -0.0000     4.0000 </r>
       <r>    -9.3711    -0.0004     4.0000 </r>
       <r>    -9.2634    -0.0072     3.9992 </r>
       <r>    -9.1558    -0.0714     3.9915 </r>
       <r>    -9.0481    -0.3123     3.9579 </r>
       <r>    -8.9404    -0.2193     3.9343 </r>
       <r>    -8.8327     2.3848     4.1911 </r>
       <r>    -8.7250     7.0692     4.9523 </r>
       <r>    -8.6173     7.4199     5.7514 </r>
       <r>    -8.5096     2.8563     6.0589 </r>
       <r>    -8.4019    -0.1079     6.0473 </r>
       <r>    -8.2943    -0.3425     6.0104 </r>
       <r>    -8.1866    -0.0869     6.0011 </r>
       <r>    -8.0789    -0.0095     6.0001 </r>
       <r>    -7.9712    -0.0005     6.0000 </r>
       <r>    -7.8635    -0.0000     6.0000 </r>
       <r>    -7.7558    -0.0000     6.0000 </r>
       <r>    -7.6481    -0.0000     6.0000 </r>
       <r>    -7.5404    -0.0000     6.0000 </r>
       <r>    -7.4328    -0.0000     6.0000 </r>
       <r>    -7.3251    -0.0000     6.0000 </r>
       <r>    -7.2174    -0.0006     5.9999 </r>
       <r>    -7.1097    -0.0100     5.9989 </r>
       <r>    -7.0020    -0.0902     5.9891 </r>
       <r>    -6.8943    -0.3481     5.9517 </r>
       <r>    -6.7866    -0.0825     5.9428 </r>
       <r>    -6.6789     2.9512     6.2606 </r>
       <r>    -6.5713     7.4810     7.0662 </r>
       <r>    -6.4636     6.9943     7.8194 </r>
       <r>    -6.3559     2.2966     8.0667 </r>
       <r>    -6.2482    -0.2374     8.0411 </r>
       <r>    -6.1405    -0.3066     8.0081 </r>
       <r>    -6.0328    -0.0735     8.0002 </r>
       <r>    -5.9251    -0.0359     7.9963 </r>
       <r>    -5.8174    -0.0784     7.9879 </r>
       <r>    -5.7098    -0.0660     7.9808 </r>
       <r>    -5.6021     0.1677     7.9989 </r>
       <r>    -5.4944     1.5851     8.1696 </r>
       <r>    -5.3867     6.2469     8.8423 </r>
       <r>    -5.2790    11.4506    10.0753 </r>
       <r>    -5.1713    10.1129    11.1644 </r>
       <r>    -5.0636     5.0827    11.7117 </r>
       <r>    -4.9560     4.9027    12.2397 </r>
       <r>    -4.8483     9.5000    13.2627 </r>
       <r>    -4.7406    13.5972    14.7270 </r>
       <r>    -4.6329    10.7921    15.8891 </r>
       <r>    -4.5252     4.1339    16.3343 </r>
       <r>    -4.4175     5.1502    16.8889 </r>
       <r>    -4.3098    12.9695    18.2855 </r>
       <r>    -4.2021    14.4754    19.8444 </r>
       <r>    -4.0945    11.0546    21.0348 </r>
       <r>    -3.9868    19.1135    23.0931 </r>
       <r>    -3.8791    44.6200    27.8981 </r>
       <r>    -3.7714    75.5670    36.0357 </r>
       <r>    -3.6637    93.3096    46.0839 </r>
       <r>    -3.5560   100.1646    56.8704 </r>
       <r>    -3.4483   121.8075    69.9875 </r>
       <r>    -3.3406   151.4361    86.2952 </r>
       <r>    -3.2330   152.3720   102.7038 </r>
       <r>    -3.1253   124.1797   116.0763 </r>
       <r>    -3.0176   104.7929   127.3612 </r>
       <r>    -2.9099   108.5699   139.0528 </r>
       <r>    -2.8022   117.1831   151.6719 </r>
       <r>    -2.6945   119.9276   164.5866 </r>
       <r>    -2.5868   113.1645   176.7729 </r>
       <r>    -2.4791   102.2350   187.7823 </r>
       <r>    -2.3715   100.7323   198.6299 </r>
       <r>    -2.2638   103.7749   209.8052 </r>
       <r>    -2.1561   105.9114   221.2105 </r>
       <r>    -2.0484   114.4863   233.5392 </r>
       <r>    -1.9407   124.5978   246.9568 </r>
       <r>    -1.8330   135.3869   261.5362 </r>
       <r>    -1.7253   148.1435   277.4894 </r>
       <r>    -1.6176   163.6492   295.1123 </r>
       <r>    -1.5100   188.2724   315.3868 </r>
       <r>    -1.4023   202.5280   337.1965 </r>
       <r>    -1.2946   183.7409   356.9831 </r>
       <r>    -1.1869   148.2591   372.9487 </r>
       <r>    -1.0792   135.0954   387.4967 </r>
       <r>    -0.9715   134.1970   401.9480 </r>
       <r>    -0.8638   122.4001   415.1290 </r>
       <r>    -0.7561   127.7795   428.8892 </r>
       <r>    -0.6485   145.3681   444.5435 </r>
       <r>    -0.5408   149.7560   460.6703 </r>
       <r>    -0.4331   139.9505   475.7411 </r>
       <r>    -0.3254   121.7874   488.8561 </r>
       <r>    -0.2177   120.5916   501.8423 </r>
       <r>    -0.1100   141.6552   517.0967 </r>
       <r>    -0.0023   162.2496   534.5689 </r>
       <r>     0.1053   166.1625   552.4625 </r>
       <r>     0.2130   146.6536   568.2552 </r>
       <r>     0.3207   123.7266   581.5790 </r>
       <r>     0.4284   132.5672   595.8548 </r>
       <r>     0.5361   181.4233   615.3918 </r>
       <r>     0.6438   219.3347   639.0113 </r>
       <r>     0.7515   198.5533   660.3930 </r>
       <r>     0.8592   140.8536   675.5611 </r>
       <r>     0.9668    80.0184   684.1781 </r>
       <r>     1.0745    32.0423   687.6286 </r>
       <r>     1.1822     7.5024   688.4365 </r>
       <r>     1.2899     2.5520   688.7113 </r>
       <r>     1.3976     8.6931   689.6475 </r>
       <r>     1.5053    23.1265   692.1379 </r>
       <r>     1.6130    33.3872   695.7333 </r>
       <r>     1.7207    26.9137   698.6315 </r>
       <r>     1.8283    14.2010   700.1608 </r>
       <r>     1.9360    15.0108   701.7773 </r>
       <r>     2.0437    23.2826   704.2845 </r>
       <r>     2.1514    23.2320   706.7863 </r>
       <r>     2.2591    20.4451   708.9880 </r>
       <r>     2.3668    18.6535   710.9967 </r>
       <r>     2.4745    13.7703   712.4796 </r>
       <r>     2.5822    10.2670   713.5852 </r>
       <r>     2.6898     9.5296   714.6114 </r>
       <r>     2.7975    10.9529   715.7909 </r>
       <r>     2.9052    15.6222   717.4733 </r>
       <r>     3.0129    19.4972   719.5729 </r>
       <r>     3.1206    21.9762   721.9394 </r>
       <r>     3.2283    22.9116   724.4067 </r>
       <r>     3.3360    22.7698   726.8587 </r>
       <r>     3.4437    24.6811   729.5166 </r>
       <r>     3.5513    26.7461   732.3968 </r>
       <r>     3.6590    29.8555   735.6118 </r>
       <r>     3.7667    31.7806   739.0342 </r>
       <r>     3.8744    27.2532   741.9690 </r>
       <r>     3.9821    19.1435   744.0305 </r>
       <r>     4.0898    11.4982   745.2687 </r>
       <r>     4.1975     6.0886   745.9244 </r>
       <r>     4.3052     7.8543   746.7702 </r>
       <r>     4.4128    19.4165   748.8611 </r>
       <r>     4.5205    30.2700   752.1208 </r>
       <r>     4.6282    26.4153   754.9654 </r>
       <r>     4.7359    13.6593   756.4363 </r>
       <r>     4.8436    10.8038   757.5998 </r>
       <r>     4.9513    21.8378   759.9514 </r>
       <r>     5.0590    30.0769   763.1903 </r>
       <r>     5.1666    25.1487   765.8985 </r>
       <r>     5.2743    14.9639   767.5099 </r>
       <r>     5.3820     9.2031   768.5010 </r>
       <r>     5.4897    16.5626   770.2846 </r>
       <r>     5.5974    34.5535   774.0055 </r>
       <r>     5.7051    40.7443   778.3932 </r>
       <r>     5.8128    27.5468   781.3596 </r>
       <r>     5.9205    14.8490   782.9587 </r>
       <r>     6.0281    11.9698   784.2477 </r>
       <r>     6.1358    12.3465   785.5772 </r>
       <r>     6.2435    14.1715   787.1033 </r>
       <r>     6.3512    15.3156   788.7526 </r>
       <r>     6.4589    15.9215   790.4672 </r>
       <r>     6.5666    20.5786   792.6832 </r>
       <r>     6.6743    26.3702   795.5229 </r>
       <r>     6.7820    24.3366   798.1437 </r>
       <r>     6.8896    13.0147   799.5452 </r>
       <r>     6.9973     3.3106   799.9017 </r>
       <r>     7.1050     0.7087   799.9780 </r>
       <r>     7.2127     0.3600   800.0168 </r>
       <r>     7.3204    -0.0283   800.0137 </r>
       <r>     7.4281    -0.0939   800.0036 </r>
       <r>     7.5358    -0.0296   800.0005 </r>
       <r>     7.6435    -0.0039   800.0000 </r>
       <r>     7.7511    -0.0003   800.0000 </r>
       <r>     7.8588    -0.0000   800.0000 </r>
       <r>     7.9665    -0.0000   800.0000 </r>
       <r>     8.0742    -0.0000   800.0000 </r>
       <r>     8.1819    -0.0000   800.0000 </r>
       <r>     8.2896    -0.0000   800.0000 </r>
       <r>     8.3973     0.0000   800.0000 </r>
       <r>     8.5050     0.0000   800.0000 </r>
       <r>     8.6126     0.0000   800.0000 </r>
       <r>     8.7203     0.0000   800.0000 </r>
       <r>     8.8280     0.0000   800.0000 </r>
       <r>     8.9357     0.0000   800.0000 </r>
       <r>     9.0434     0.0000   800.0000 </r>
      </set>
     </set>
    </array>
   </total>
  </dos>
 </calculation>
 <structure name="finalpos" >
  <crystal>
   <varray name="basis" >
    <v>      11.14491190       0.00000000       0.00000000 </v>
    <v>       5.57245595       9.65177683       0.00000000 </v>
    <v>       0.00000000       0.00000000      21.82483685 </v>
   </varray>
   <i name="volume">   2347.65846769 </i>
   <varray name="rec_basis" >
    <v>       0.08972704      -0.05180393       0.00000000 </v>
    <v>       0.00000000       0.10360787       0.00000000 </v>
    <v>       0.00000000       0.00000000       0.04581936 </v>
   </varray>
  </crystal>
  <varray name="positions" >
   <v>       0.00000000       0.00000000       0.34364518 </v>
   <v>       0.25000000       0.00000000       0.34364518 </v>
   <v>       0.50000000       0.00000000       0.34364518 </v>
   <v>       0.75000000       0.00000000       0.34364518 </v>
   <v>       0.00000000       0.25000000       0.34364518 </v>
   <v>       0.25000000       0.25000000       0.34364518 </v>
   <v>       0.50000000       0.25000000       0.34364518 </v>
   <v>       0.75000000       0.25000000       0.34364518 </v>
   <v>       0.00000000       0.50000000       0.34364518 </v>
   <v>       0.25000000       0.50000000       0.34364518 </v>
   <v>       0.50000000       0.50000000       0.34364518 </v>
   <v>       0.75000000       0.50000000       0.34364518 </v>
   <v>       0.00000000       0.75000000       0.34364518 </v>
   <v>       0.25000000       0.75000000       0.34364518 </v>
   <v>       0.50000000       0.75000000       0.34364518 </v>
   <v>       0.75000000       0.75000000       0.34364518 </v>
   <v>       0.08333333       0.08333333       0.44788173 </v>
   <v>       0.33333333       0.08333333       0.44788173 </v>
   <v>       0.58333333       0.08333333       0.44788173 </v>
   <v>       0.83333333       0.08333333       0.44788173 </v>
   <v>       0.08333333       0.33333333       0.44788173 </v>
   <v>       0.33333333       0.33333333       0.44788173 </v>
   <v>       0.58333333       0.33333333       0.44788173 </v>
   <v>       0.83333333       0.33333333       0.44788173 </v>
   <v>       0.08333333       0.58333333       0.44788173 </v>
   <v>       0.33333333       0.58333333       0.44788173 </v>
   <v>       0.58333333       0.58333333       0.44788173 </v>
   <v>       0.83333333       0.58333333       0.44788173 </v>
   <v>       0.08333333       0.83333333       0.44788173 </v>
   <v>       0.33333333       0.83333333       0.44788173 </v>
   <v>       0.58333333       0.83333333       0.44788173 </v>
   <v>       0.83333333       0.83333333       0.44788173 </v>
   <v>       0.91666667       0.16666667       0.55312823 </v>
   <v>       0.16666667       0.16666667       0.55312823 </v>
   <v>       0.41666667       0.16666667       0.55312823 </v>
   <v>       0.66666667       0.16666667       0.55312823 </v>
   <v>       0.91666667       0.41666667       0.55312823 </v>
   <v>       0.16666667       0.41666667       0.55312823 </v>
   <v>       0.41666667       0.41666667       0.55312823 </v>
   <v>       0.66666667       0.41666667       0.55312823 </v>
   <v>       0.91666667       0.66666667       0.55312823 </v>
   <v>       0.16666667       0.66666667       0.55312823 </v>
   <v>       0.41666667       0.66666667       0.55312823 </v>
   <v>       0.66666667       0.66666667       0.55312823 </v>
   <v>       0.91666667       0.91666667       0.55312823 </v>
   <v>       0.16666667       0.91666667       0.55312823 </v>
   <v>       0.41666667       0.91666667       0.55312823 </v>
   <v>       0.66666667       0.91666667       0.55312823 </v>
   <v>       0.00000000       0.00000000       0.65939211 </v>
   <v>       0.25000000       0.00000000       0.65939211 </v>
   <v>       0.50000000       0.00000000       0.65939211 </v>
   <v>       0.75000000       0.00000000       0.65939211 </v>
   <v>       0.00000000       0.25000000       0.65939211 </v>
   <v>       0.25000000       0.25000000       0.65939211 </v>
   <v>       0.50000000       0.25000000       0.65939211 </v>
   <v>       0.75000000       0.25000000       0.65939211 </v>
   <v>       0.00000000       0.50000000       0.65939211 </v>
   <v>       0.25000000       0.50000000       0.65939211 </v>
   <v>       0.50000000       0.50000000       0.65939211 </v>
   <v>       0.75000000       0.50000000       0.65939211 </v>
   <v>       0.00000000       0.75000000       0.65939211 </v>
   <v>       0.25000000       0.75000000       0.65939211 </v>
   <v>       0.50000000       0.75000000       0.65939211 </v>
   <v>       0.75000000       0.75000000       0.65939211 </v>
   <v>       0.24605750       0.00392377       0.75272840 </v>
   <v>       0.14211391       0.04286646       0.78020695 </v>
   <v>       0.99965657       0.10579167       0.74207770 </v>
  </varray>
  <varray name="selective"  type="logical" >
   <v type="logical" >  F  F  F </v>
   <v type="logical" >  F  F  F </v>
   <v type="logical" >  F  F  F </v>
   <v type="logical" >  F  F  F </v>
   <v type="logical" >  F  F  F </v>
   <v type="logical" >  F  F  F </v>
   <v type="logical" >  F  F  F </v>
   <v type="logical" >  F  F  F </v>
   <v type="logical" >  F  F  F </v>
   <v type="logical" >  F  F  F </v>
   <v type="logical" >  F  F  F </v>
   <v type="logical" >  F  F  F </v>
   <v type="logical" >  F  F  F </v>
   <v type="logical" >  F  F  F </v>
   <v type="logical" >  F  F  F </v>
   <v type="logical" >  F  F  F </v>
   <v type="logical" >  F  F  F </v>
   <v type="logical" >  F  F  F </v>
   <v type="logical" >  F  F  F </v>
   <v type="logical" >  F  F  F </v>
   <v type="logical" >  F  F  F </v>
   <v type="logical" >  F  F  F </v>
   <v type="logical" >  F  F  F </v>
   <v type="logical" >  F  F  F </v>
   <v type="logical" >  F  F  F </v>
   <v type="logical" >  F  F  F </v>
   <v type="logical" >  F  F  F </v>
   <v type="logical" >  F  F  F </v>
   <v type="logical" >  F  F  F </v>
   <v type="logical" >  F  F  F </v>
   <v type="logical" >  F  F  F </v>
   <v type="logical" >  F  F  F </v>
   <v type="logical" >  F  F  F </v>
   <v type="logical" >  F  F  F </v>
   <v type="logical" >  F  F  F </v>
   <v type="logical" >  F  F  F </v>
   <v type="logical" >  F  F  F </v>
   <v type="logical" >  F  F  F </v>
   <v type="logical" >  F  F  F </v>
   <v type="logical" >  F  F  F </v>
   <v type="logical" >  F  F  F </v>
   <v type="logical" >  F  F  F </v>
   <v type="logical" >  F  F  F </v>
   <v type="logical" >  F  F  F </v>
   <v type="logical" >  F  F  F </v>
   <v type="logical" >  F  F  F </v>
   <v type="logical" >  F  F  F </v>
   <v type="logical" >  F  F  F </v>
   <v type="logical" >  F  F  F </v>
   <v type="logical" >  F  F  F </v>
   <v type="logical" >  F  F  F </v>
   <v type="logical" >  F  F  F </v>
   <v type="logical" >  F  F  F </v>
   <v type="logical" >  F  F  F </v>
   <v type="logical" >  F  F  F </v>
   <v type="logical" >  F  F  F </v>
   <v type="logical" >  F  F  F </v>
   <v type="logical" >  F  F  F </v>
   <v type="logical" >  F  F  F </v>
   <v type="logical" >  F  F  F </v>
   <v type="logical" >  F  F  F </v>
   <v type="logical" >  F  F  F </v>
   <v type="logical" >  F  F  F </v>
   <v type="logical" >  F  F  F </v>
   <v type="logical" >  T  T  T </v>
   <v type="logical" >  T  T  T </v>
   <v type="logical" >  T  T  T </v>
  </varray>
  <nose>
   <v>      -3.00000000       0.00000000       0.00010000       0.00010000 </v>
  </nose>
 </structure>
</modeling>
