  67  67   0   0
  0.3503968E+02  0.1114491E-08  0.1114491E-08  0.2182484E-08  0.0000000E+00
  1.000000000000000E-004
  CAR 
 Si-Diamond                              
      9.06205943    -23.72219272  301      0.74810869      1.00000000
    -23.722  0.0000E+00  0.0000E+00
    -23.613  0.0000E+00  0.0000E+00
    -23.504  0.0000E+00  0.0000E+00
    -23.394 -0.1885E-31 -0.2060E-32
    -23.285 -0.1214E-27 -0.1327E-28
    -23.176 -0.4285E-24 -0.4684E-25
    -23.067 -0.8274E-21 -0.9046E-22
    -22.957 -0.8734E-18 -0.9553E-19
    -22.848 -0.4880E-15 -0.5343E-16
    -22.739 -0.1520E-12 -0.1666E-13
    -22.629 -0.2567E-10 -0.2822E-11
    -22.520 -0.2336E-08 -0.2581E-09
    -22.411 -0.1135E-06 -0.1266E-07
    -22.302 -0.2890E-05 -0.3285E-06
    -22.192 -0.3725E-04 -0.4399E-05
    -22.083 -0.2210E-03 -0.2855E-04
    -21.974 -0.3848E-03 -0.7060E-04
    -21.864  0.1309E-02  0.7246E-04
    -21.755  0.5971E-02  0.7250E-03
    -21.646  0.7975E-02  0.1597E-02
    -21.537  0.3984E-02  0.2032E-02
    -21.427  0.2351E-03  0.2058E-02
    -21.318 -0.3900E-03  0.2015E-02
    -21.209 -0.1212E-03  0.2002E-02
    -21.099 -0.1473E-04  0.2000E-02
    -20.990 -0.8668E-06  0.2000E-02
    -20.881 -0.2628E-07  0.2000E-02
    -20.772 -0.4212E-09  0.2000E-02
    -20.662 -0.3619E-11  0.2000E-02
    -20.553 -0.1680E-13  0.2000E-02
    -20.444 -0.4470E-16  0.2000E-02
    -20.334  0.0000E+00  0.2000E-02
    -20.225  0.0000E+00  0.2000E-02
    -20.116  0.0000E+00  0.2000E-02
    -20.007  0.0000E+00  0.2000E-02
    -19.897  0.0000E+00  0.2000E-02
    -19.788  0.0000E+00  0.2000E-02
    -19.679 -0.5067E-32  0.2000E-02
    -19.570 -0.3560E-28  0.2000E-02
    -19.460 -0.1370E-24  0.2000E-02
    -19.351 -0.2886E-21  0.2000E-02
    -19.242 -0.3324E-18  0.2000E-02
    -19.132 -0.2029E-15  0.2000E-02
    -19.023 -0.6899E-13  0.2000E-02
    -18.914 -0.1273E-10  0.2000E-02
    -18.805 -0.1267E-08  0.2000E-02
    -18.695 -0.6743E-07  0.2000E-02
    -18.586 -0.1888E-05  0.2000E-02
    -18.477 -0.2694E-04  0.1997E-02
    -18.367 -0.1807E-03  0.1977E-02
    -18.258 -0.4092E-03  0.1932E-02
    -18.149  0.8482E-03  0.2025E-02
    -18.040  0.5269E-02  0.2601E-02
    -17.930  0.8112E-02  0.3487E-02
    -17.821  0.4721E-02  0.4003E-02
    -17.712  0.5557E-03  0.4064E-02
    -17.602 -0.4087E-03  0.4019E-02
    -17.493 -0.1534E-03  0.4002E-02
    -17.384 -0.2092E-04  0.4000E-02
    -17.275 -0.1360E-05  0.4000E-02
    -17.165 -0.4525E-07  0.4000E-02
    -17.056 -0.7944E-09  0.4000E-02
    -16.947 -0.7463E-11  0.4000E-02
    -16.837 -0.3784E-13  0.4000E-02
    -16.728 -0.1029E-15  0.4000E-02
    -16.619  0.0000E+00  0.4000E-02
    -16.510  0.0000E+00  0.4000E-02
    -16.400  0.0000E+00  0.4000E-02
    -16.291  0.0000E+00  0.4000E-02
    -16.182  0.0000E+00  0.4000E-02
    -16.073  0.0000E+00  0.4000E-02
    -15.963  0.0000E+00  0.4000E-02
    -15.854  0.0000E+00  0.4000E-02
    -15.745  0.0000E+00  0.4000E-02
    -15.635  0.0000E+00  0.4000E-02
    -15.526  0.0000E+00  0.4000E-02
    -15.417  0.0000E+00  0.4000E-02
    -15.308  0.0000E+00  0.4000E-02
    -15.198  0.0000E+00  0.4000E-02
    -15.089  0.0000E+00  0.4000E-02
    -14.980  0.0000E+00  0.4000E-02
    -14.870  0.0000E+00  0.4000E-02
    -14.761  0.0000E+00  0.4000E-02
    -14.652  0.0000E+00  0.4000E-02
    -14.543  0.0000E+00  0.4000E-02
    -14.433  0.0000E+00  0.4000E-02
    -14.324  0.0000E+00  0.4000E-02
    -14.215  0.0000E+00  0.4000E-02
    -14.105  0.0000E+00  0.4000E-02
    -13.996  0.0000E+00  0.4000E-02
    -13.887  0.0000E+00  0.4000E-02
    -13.778  0.0000E+00  0.4000E-02
    -13.668  0.0000E+00  0.4000E-02
    -13.559  0.0000E+00  0.4000E-02
    -13.450  0.0000E+00  0.4000E-02
    -13.341  0.0000E+00  0.4000E-02
    -13.231  0.0000E+00  0.4000E-02
    -13.122  0.0000E+00  0.4000E-02
    -13.013  0.0000E+00  0.4000E-02
    -12.903  0.0000E+00  0.4000E-02
    -12.794  0.0000E+00  0.4000E-02
    -12.685  0.0000E+00  0.4000E-02
    -12.576  0.0000E+00  0.4000E-02
    -12.466  0.0000E+00  0.4000E-02
    -12.357  0.0000E+00  0.4000E-02
    -12.248  0.0000E+00  0.4000E-02
    -12.138  0.0000E+00  0.4000E-02
    -12.029  0.0000E+00  0.4000E-02
    -11.920  0.0000E+00  0.4000E-02
    -11.811  0.0000E+00  0.4000E-02
    -11.701  0.0000E+00  0.4000E-02
    -11.592  0.0000E+00  0.4000E-02
    -11.483  0.0000E+00  0.4000E-02
    -11.373  0.0000E+00  0.4000E-02
    -11.264  0.0000E+00  0.4000E-02
    -11.155  0.0000E+00  0.4000E-02
    -11.046  0.0000E+00  0.4000E-02
    -10.936  0.0000E+00  0.4000E-02
    -10.827 -0.5557E-29  0.4000E-02
    -10.718 -0.2435E-25  0.4000E-02
    -10.608 -0.5840E-22  0.4000E-02
    -10.499 -0.7661E-19  0.4000E-02
    -10.390 -0.5286E-16  0.4000E-02
    -10.281 -0.2069E-13  0.4000E-02
    -10.171 -0.4358E-11  0.4000E-02
    -10.062 -0.4958E-09  0.4000E-02
     -9.953 -0.3022E-07  0.4000E-02
     -9.844 -0.9735E-06  0.4000E-02
     -9.734 -0.1613E-04  0.3998E-02
     -9.625 -0.1289E-03  0.3984E-02
     -9.516 -0.3964E-03  0.3941E-02
     -9.406  0.3095E-03  0.3975E-02
     -9.297  0.4171E-02  0.4430E-02
     -9.188  0.8024E-02  0.5307E-02
     -9.079  0.5797E-02  0.5941E-02
     -8.969  0.1184E-02  0.6070E-02
     -8.860 -0.3942E-03  0.6027E-02
     -8.751 -0.2104E-03  0.6004E-02
     -8.641 -0.3434E-04  0.6000E-02
     -8.532 -0.2596E-05  0.6000E-02
     -8.423 -0.9949E-07  0.6000E-02
     -8.314 -0.2001E-08  0.6000E-02
     -8.204 -0.2150E-10  0.6000E-02
     -8.095 -0.1265E-12  0.6000E-02
     -7.986 -0.5514E-12  0.6000E-02
     -7.876 -0.8027E-10  0.6000E-02
     -7.767 -0.6289E-08  0.6000E-02
     -7.658 -0.2621E-06  0.6000E-02
     -7.549 -0.5694E-05  0.5999E-02
     -7.439 -0.6168E-04  0.5993E-02
     -7.330 -0.2937E-03  0.5961E-02
     -7.221 -0.2566E-03  0.5932E-02
     -7.112  0.2249E-02  0.6178E-02
     -7.002  0.6998E-02  0.6943E-02
     -6.893  0.7421E-02  0.7754E-02
     -6.784  0.2804E-02  0.8060E-02
     -6.674 -0.1356E-03  0.8046E-02
     -6.565 -0.3306E-03  0.8009E-02
     -6.456 -0.7853E-04  0.8001E-02
     -6.347 -0.8018E-05  0.8000E-02
     -6.237 -0.2441E-05  0.8000E-02
     -6.128 -0.2882E-04  0.7997E-02
     -6.019 -0.1914E-03  0.7976E-02
     -5.909 -0.4338E-03  0.7928E-02
     -5.800  0.8491E-03  0.8021E-02
     -5.691  0.5367E-02  0.8608E-02
     -5.582  0.8449E-02  0.9531E-02
     -5.472  0.6191E-02  0.1021E-01
     -5.363  0.4820E-02  0.1073E-01
     -5.254  0.7000E-02  0.1150E-01
     -5.144  0.9184E-02  0.1250E-01
     -5.035  0.9052E-02  0.1349E-01
     -4.926  0.7820E-02  0.1435E-01
     -4.817  0.7542E-02  0.1517E-01
     -4.707  0.6346E-02  0.1586E-01
     -4.598  0.2909E-02  0.1618E-01
     -4.489  0.1206E-02  0.1631E-01
     -4.379  0.6387E-02  0.1701E-01
     -4.270  0.1425E-01  0.1857E-01
     -4.161  0.1387E-01  0.2009E-01
     -4.052  0.1131E-01  0.2132E-01
     -3.942  0.2346E-01  0.2389E-01
     -3.833  0.5234E-01  0.2961E-01
     -3.724  0.8180E-01  0.3854E-01
     -3.615  0.9540E-01  0.4897E-01
     -3.505  0.1047E+00  0.6042E-01
     -3.396  0.1320E+00  0.7484E-01
     -3.287  0.1563E+00  0.9192E-01
     -3.177  0.1466E+00  0.1079E+00
     -3.068  0.1181E+00  0.1208E+00
     -2.959  0.1063E+00  0.1325E+00
     -2.850  0.1121E+00  0.1447E+00
     -2.740  0.1184E+00  0.1576E+00
     -2.631  0.1180E+00  0.1705E+00
     -2.522  0.1082E+00  0.1824E+00
     -2.412  0.9966E-01  0.1933E+00
     -2.303  0.1015E+00  0.2043E+00
     -2.194  0.1033E+00  0.2156E+00
     -2.085  0.1084E+00  0.2275E+00
     -1.975  0.1191E+00  0.2405E+00
     -1.866  0.1290E+00  0.2546E+00
     -1.757  0.1417E+00  0.2701E+00
     -1.647  0.1551E+00  0.2870E+00
     -1.538  0.1756E+00  0.3062E+00
     -1.429  0.1987E+00  0.3279E+00
     -1.320  0.1957E+00  0.3493E+00
     -1.210  0.1626E+00  0.3671E+00
     -1.101  0.1372E+00  0.3821E+00
     -0.992  0.1363E+00  0.3970E+00
     -0.882  0.1267E+00  0.4108E+00
     -0.773  0.1221E+00  0.4242E+00
     -0.664  0.1396E+00  0.4394E+00
     -0.555  0.1504E+00  0.4559E+00
     -0.445  0.1452E+00  0.4717E+00
     -0.336  0.1265E+00  0.4856E+00
     -0.227  0.1168E+00  0.4983E+00
     -0.118  0.1343E+00  0.5130E+00
     -0.008  0.1581E+00  0.5303E+00
      0.101  0.1675E+00  0.5486E+00
      0.210  0.1520E+00  0.5652E+00
      0.320  0.1261E+00  0.5790E+00
      0.429  0.1270E+00  0.5928E+00
      0.538  0.1716E+00  0.6116E+00
      0.647  0.2165E+00  0.6352E+00
      0.757  0.2042E+00  0.6576E+00
      0.866  0.1487E+00  0.6738E+00
      0.975  0.8704E-01  0.6833E+00
      1.085  0.3625E-01  0.6873E+00
      1.194  0.8226E-02  0.6882E+00
      1.303  0.2655E-02  0.6885E+00
      1.412  0.8814E-02  0.6894E+00
      1.522  0.2203E-01  0.6919E+00
      1.631  0.3270E-01  0.6954E+00
      1.740  0.2796E-01  0.6985E+00
      1.850  0.1537E-01  0.7002E+00
      1.959  0.1526E-01  0.7018E+00
      2.068  0.2292E-01  0.7043E+00
      2.177  0.2285E-01  0.7068E+00
      2.287  0.2031E-01  0.7090E+00
      2.396  0.1839E-01  0.7111E+00
      2.505  0.1344E-01  0.7125E+00
      2.614  0.1004E-01  0.7136E+00
      2.724  0.9547E-02  0.7147E+00
      2.833  0.1160E-01  0.7159E+00
      2.942  0.1652E-01  0.7177E+00
      3.052  0.2028E-01  0.7200E+00
      3.161  0.2272E-01  0.7224E+00
      3.270  0.2335E-01  0.7250E+00
      3.379  0.2327E-01  0.7275E+00
      3.489  0.2461E-01  0.7302E+00
      3.598  0.2674E-01  0.7331E+00
      3.707  0.3082E-01  0.7365E+00
      3.817  0.3130E-01  0.7399E+00
      3.926  0.2509E-01  0.7427E+00
      4.035  0.1713E-01  0.7445E+00
      4.144  0.9419E-02  0.7456E+00
      4.254  0.5139E-02  0.7461E+00
      4.363  0.1061E-01  0.7473E+00
      4.472  0.2424E-01  0.7499E+00
      4.582  0.3055E-01  0.7533E+00
      4.691  0.2100E-01  0.7556E+00
      4.800  0.1027E-01  0.7567E+00
      4.909  0.1399E-01  0.7582E+00
      5.019  0.2647E-01  0.7611E+00
      5.128  0.2965E-01  0.7644E+00
      5.237  0.2118E-01  0.7667E+00
      5.347  0.1110E-01  0.7679E+00
      5.456  0.9219E-02  0.7689E+00
      5.565  0.2360E-01  0.7715E+00
      5.674  0.4043E-01  0.7759E+00
      5.784  0.3631E-01  0.7799E+00
      5.893  0.1963E-01  0.7820E+00
      6.002  0.1173E-01  0.7833E+00
      6.111  0.1261E-01  0.7847E+00
      6.221  0.1196E-01  0.7860E+00
      6.330  0.9891E-02  0.7871E+00
      6.439  0.1201E-01  0.7884E+00
      6.549  0.1900E-01  0.7904E+00
      6.658  0.2828E-01  0.7935E+00
      6.767  0.3089E-01  0.7969E+00
      6.876  0.2010E-01  0.7991E+00
      6.986  0.6692E-02  0.7998E+00
      7.095  0.1294E-02  0.8000E+00
      7.204  0.3888E-03  0.8000E+00
      7.314 -0.2569E-04  0.8000E+00
      7.423 -0.1187E-03  0.8000E+00
      7.532 -0.4259E-04  0.8000E+00
      7.641 -0.6272E-05  0.8000E+00
      7.751 -0.4501E-06  0.8000E+00
      7.860 -0.1669E-07  0.8000E+00
      7.969 -0.3282E-09  0.8000E+00
      8.079 -0.3474E-11  0.8000E+00
      8.188 -0.1993E-13  0.8000E+00
      8.297 -0.6231E-16  0.8000E+00
      8.406  0.0000E+00  0.8000E+00
      8.516  0.0000E+00  0.8000E+00
      8.625  0.0000E+00  0.8000E+00
      8.734  0.0000E+00  0.8000E+00
      8.843  0.0000E+00  0.8000E+00
      8.953  0.0000E+00  0.8000E+00
      9.062  0.0000E+00  0.8000E+00
