   67   67 1000    1
  0.3503968E+02  0.1114491E-08  0.1114491E-08  0.2182484E-08  0.0000000E+00
  1.000000000000000E-004
  CAR 
 Si-Diamond                              
    656      5    400
 
  0.0000000E+00  0.0000000E+00  0.0000000E+00  0.1111111E+00
    1      -21.722125   1.000000
    2      -17.990741   1.000000
    3       -9.224938   1.000000
    4       -6.995118   1.000000
    5       -5.643752   1.000000
    6       -5.547569   1.000000
    7       -5.140700   1.000000
    8       -4.522213   1.000000
    9       -4.099127   1.000000
   10       -4.087637   1.000000
   11       -4.079646   1.000000
   12       -4.075030   1.000000
   13       -4.074342   1.000000
   14       -4.073002   1.000000
   15       -4.003375   1.000000
   16       -3.984643   1.000000
   17       -3.984471   1.000000
   18       -3.981363   1.000000
   19       -3.881793   1.000000
   20       -3.878374   1.000000
   21       -3.864086   1.000000
   22       -3.858894   1.000000
   23       -3.698066   1.000000
   24       -3.697004   1.000000
   25       -3.690775   1.000000
   26       -3.542275   1.000000
   27       -3.534576   1.000000
   28       -3.513545   1.000000
   29       -3.508082   1.000000
   30       -3.501922   1.000000
   31       -3.498304   1.000000
   32       -3.494612   1.000000
   33       -3.487933   1.000000
   34       -3.485090   1.000000
   35       -3.354369   1.000000
   36       -3.352555   1.000000
   37       -3.336228   1.000000
   38       -3.304740   1.000000
   39       -3.281849   1.000000
   40       -3.278240   1.000000
   41       -3.278102   1.000000
   42       -3.275144   1.000000
   43       -3.275050   1.000000
   44       -3.270796   1.000000
   45       -3.266908   1.000000
   46       -3.254955   1.000000
   47       -3.251897   1.000000
   48       -3.251529   1.000000
   49       -3.245423   1.000000
   50       -3.238474   1.000000
   51       -3.204589   1.000000
   52       -3.204350   1.000000
   53       -3.200299   1.000000
   54       -3.196922   1.000000
   55       -3.196600   1.000000
   56       -3.064068   1.000000
   57       -3.003008   1.000000
   58       -3.000269   1.000000
   59       -3.000061   1.000000
   60       -2.988311   1.000000
   61       -2.988219   1.000000
   62       -2.969594   1.000000
   63       -2.935873   1.000000
   64       -2.905662   1.000000
   65       -2.888842   1.000000
   66       -2.887419   1.000000
   67       -2.880815   1.000000
   68       -2.865009   1.000000
   69       -2.840583   1.000000
   70       -2.834232   1.000000
   71       -2.826903   1.000000
   72       -2.823338   1.000000
   73       -2.817768   1.000000
   74       -2.815556   1.000000
   75       -2.808579   1.000000
   76       -2.801681   1.000000
   77       -2.796450   1.000000
   78       -2.720219   1.000000
   79       -2.718603   1.000000
   80       -2.699068   1.000000
   81       -2.692192   1.000000
   82       -2.691067   1.000000
   83       -2.689773   1.000000
   84       -2.581840   1.000000
   85       -2.531871   1.000000
   86       -2.525282   1.000000
   87       -2.523737   1.000000
   88       -2.505023   1.000000
   89       -2.473831   1.000000
   90       -2.469783   1.000000
   91       -2.435975   1.000000
   92       -2.431654   1.000000
   93       -2.425029   1.000000
   94       -2.418356   1.000000
   95       -2.413143   1.000000
   96       -2.387580   1.000000
   97       -2.371774   1.000000
   98       -2.370689   1.000000
   99       -2.361698   1.000000
  100       -2.353316   1.000000
  101       -2.351803   1.000000
  102       -2.344230   1.000000
  103       -2.340025   1.000000
  104       -2.337175   1.000000
  105       -2.334028   1.000000
  106       -2.330040   1.000000
  107       -2.310490   1.000000
  108       -2.234818   1.000000
  109       -2.172476   1.000000
  110       -2.142614   1.000000
  111       -2.133238   1.000000
  112       -2.122988   1.000000
  113       -2.122232   1.000000
  114       -2.120871   1.000000
  115       -2.083287   1.000000
  116       -2.071050   1.000000
  117       -2.037929   1.000000
  118       -2.020550   1.000000
  119       -2.008718   1.000000
  120       -2.006684   1.000000
  121       -2.001110   1.000000
  122       -1.996742   1.000000
  123       -1.994481   1.000000
  124       -1.992316   1.000000
  125       -1.971552   1.000000
  126       -1.960098   1.000000
  127       -1.916109   1.000000
  128       -1.824702   1.000000
  129       -1.799815   1.000000
  130       -1.797638   1.000000
  131       -1.793204   1.000000
  132       -1.791143   1.000000
  133       -1.791033   1.000000
  134       -1.782290   1.000000
  135       -1.780455   1.000000
  136       -1.780104   1.000000
  137       -1.779335   1.000000
  138       -1.777764   1.000000
  139       -1.773831   1.000000
  140       -1.747873   1.000000
  141       -1.743089   1.000000
  142       -1.738594   1.000000
  143       -1.702409   1.000000
  144       -1.701892   1.000000
  145       -1.598582   1.000000
  146       -1.585973   1.000000
  147       -1.576287   1.000000
  148       -1.568342   1.000000
  149       -1.567537   1.000000
  150       -1.561554   1.000000
  151       -1.556850   1.000000
  152       -1.546596   1.000000
  153       -1.545365   1.000000
  154       -1.498586   1.000000
  155       -1.489363   1.000000
  156       -1.444139   1.000000
  157       -1.425137   1.000000
  158       -1.422452   1.000000
  159       -1.412593   1.000000
  160       -1.382547   1.000000
  161       -1.369016   1.000000
  162       -1.363248   1.000000
  163       -1.359270   1.000000
  164       -1.334949   1.000000
  165       -1.334377   1.000000
  166       -1.297499   1.000000
  167       -1.292237   1.000000
  168       -1.287187   1.000000
  169       -1.283388   1.000000
  170       -1.282433   1.000000
  171       -1.281024   1.000000
  172       -1.278210   1.000000
  173       -1.264245   1.000000
  174       -1.263187   1.000000
  175       -1.263006   1.000000
  176       -1.255490   1.000000
  177       -1.254328   1.000000
  178       -1.253399   1.000000
  179       -1.248305   1.000000
  180       -1.247875   1.000000
  181       -1.243099   1.000000
  182       -1.242886   1.000000
  183       -1.239107   1.000000
  184       -1.236893   1.000000
  185       -1.232208   1.000000
  186       -1.225632   1.000000
  187       -1.209630   1.000000
  188       -1.196205   1.000000
  189       -1.192925   1.000000
  190       -1.189791   1.000000
  191       -1.187037   1.000000
  192       -1.174581   1.000000
  193       -1.120538   1.000000
  194       -1.111190   1.000000
  195       -1.090201   1.000000
  196       -1.089263   1.000000
  197       -1.078043   1.000000
  198       -1.061985   1.000000
  199       -1.004530   1.000000
  200       -0.994680   1.000000
  201       -0.984073   1.000000
  202       -0.964343   1.000000
  203       -0.960320   1.000000
  204       -0.951784   1.000000
  205       -0.891358   1.000000
  206       -0.885886   1.000000
  207       -0.869488   1.000000
  208       -0.862242   1.000000
  209       -0.848051   1.000000
  210       -0.813703   1.000000
  211       -0.811097   1.000000
  212       -0.810943   1.000000
  213       -0.805450   1.000000
  214       -0.804351   1.000000
  215       -0.797506   1.000000
  216       -0.794304   1.000000
  217       -0.787713   1.000000
  218       -0.787219   1.000000
  219       -0.776995   1.000000
  220       -0.776909   1.000000
  221       -0.772381   1.000000
  222       -0.766631   1.000000
  223       -0.753641   1.000000
  224       -0.687115   1.000000
  225       -0.654036   1.000000
  226       -0.649828   1.000000
  227       -0.638678   1.000000
  228       -0.634078   1.000000
  229       -0.631203   1.000000
  230       -0.624798   1.000000
  231       -0.577615   1.000000
  232       -0.575713   1.000000
  233       -0.558903   1.000000
  234       -0.555472   1.000000
  235       -0.554861   1.000000
  236       -0.520017   1.000000
  237       -0.495900   1.000000
  238       -0.469235   1.000000
  239       -0.465894   1.000000
  240       -0.432502   1.000000
  241       -0.424488   1.000000
  242       -0.412711   1.000000
  243       -0.406363   1.000000
  244       -0.402592   1.000000
  245       -0.398910   1.000000
  246       -0.397513   1.000000
  247       -0.346472   1.000000
  248       -0.339568   1.000000
  249       -0.331659   1.000000
  250       -0.324527   1.000000
  251       -0.310984   1.000000
  252       -0.307114   1.000000
  253       -0.277509   1.000000
  254       -0.257127   1.000000
  255       -0.247795   1.000000
  256       -0.241266   1.000000
  257       -0.239823   1.000000
  258       -0.228689   1.000000
  259       -0.217285   1.000000
  260       -0.215472   1.000000
  261       -0.214282   1.000000
  262       -0.211614   1.000000
  263       -0.210741   1.000000
  264       -0.201626   1.000000
  265       -0.172204   1.000000
  266       -0.146262   1.000000
  267       -0.113525   1.000000
  268       -0.104022   1.000000
  269       -0.070517   1.000000
  270       -0.056046   1.000000
  271       -0.051281   1.000000
  272       -0.042848   1.000000
  273       -0.040247   1.000000
  274       -0.025146   1.000000
  275       -0.021857   1.000000
  276       -0.015363   1.000000
  277       -0.003903   1.000001
  278       -0.001561   1.000001
  279        0.002730   1.000001
  280        0.028331   1.000002
  281        0.068792   1.000009
  282        0.070861   1.000009
  283        0.075420   1.000011
  284        0.077542   1.000011
  285        0.079030   1.000012
  286        0.114304   1.000035
  287        0.128914   1.000054
  288        0.164662   1.000147
  289        0.269338   1.001836
  290        0.281283   1.002352
  291        0.293457   1.003001
  292        0.330227   1.005925
  293        0.349121   1.008126
  294        0.353980   1.008780
  295        0.359525   1.009572
  296        0.367227   1.010753
  297        0.379661   1.012861
  298        0.396128   1.016019
  299        0.396341   1.016062
  300        0.477159   1.033289
  301        0.521655   1.033968
  302        0.525263   1.033281
  303        0.525350   1.033263
  304        0.555663   1.020751
  305        0.588392   0.989685
  306        0.606685   0.962335
  307        0.616734   0.943907
  308        0.628730   0.918615
  309        0.641829   0.886854
  310        0.675806   0.784901
  311        0.678924   0.774230
  312        0.709512   0.659990
  313        0.710590   0.655700
  314        0.721530   0.611371
  315        0.729260   0.579367
  316        0.730752   0.573138
  317        0.733328   0.562353
  318        0.734224   0.558596
  319        0.736844   0.547580
  320        0.756890   0.462880
  321        0.758889   0.454458
  322        0.759125   0.453463
  323        0.761386   0.443956
  324        0.797918   0.296314
  325        0.798990   0.292235
  326        0.801390   0.283173
  327        0.820564   0.214581
  328        0.836013   0.164903
  329        0.896951   0.025632
  330        0.897085   0.025427
  331        0.898214   0.023714
  332        0.906944   0.011458
  333        0.914238   0.002522
  334        0.921036  -0.004785
  335        0.922881  -0.006606
  336        0.946495  -0.024270
  337        0.946993  -0.024539
  338        1.027548  -0.031874
  339        1.039462  -0.029529
  340        1.051065  -0.026988
  341        1.070616  -0.022487
  342        1.076370  -0.021168
  343        1.078204  -0.020751
  344        1.084031  -0.019444
  345        1.422142  -0.000010
  346        1.618228  -0.000000
  347        1.624497  -0.000000
  348        1.625889  -0.000000
  349        1.692204  -0.000000
  350        1.786298  -0.000000
  351        2.113555  -0.000000
  352        2.685295  -0.000000
  353        2.691712  -0.000000
  354        2.726088  -0.000000
  355        2.833540  -0.000000
  356        3.170958  -0.000000
  357        3.209407  -0.000000
  358        3.211179  -0.000000
  359        3.216321  -0.000000
  360        3.217316  -0.000000
  361        3.237101  -0.000000
  362        3.488780  -0.000000
  363        3.750440  -0.000000
  364        3.752947  -0.000000
  365        3.757536  -0.000000
  366        3.781016  -0.000000
  367        3.784229  -0.000000
  368        3.796186  -0.000000
  369        3.800024  -0.000000
  370        3.812658  -0.000000
  371        3.840753  -0.000000
  372        3.878243  -0.000000
  373        3.904088  -0.000000
  374        3.909744  -0.000000
  375        4.048569  -0.000000
  376        4.231441  -0.000000
  377        4.329099  -0.000000
  378        4.456220  -0.000000
  379        4.469002  -0.000000
  380        4.498668  -0.000000
  381        4.534610  -0.000000
  382        4.576104  -0.000000
  383        4.712578  -0.000000
  384        5.076042  -0.000000
  385        5.079980  -0.000000
  386        5.127770  -0.000000
  387        5.199591  -0.000000
  388        5.211085  -0.000000
  389        5.295642  -0.000000
  390        5.626728  -0.000000
  391        5.634790  -0.000000
  392        5.648743  -0.000000
  393        5.717428  -0.000000
  394        5.819509  -0.000000
  395        5.980375  -0.000000
  396        6.234406   0.000000
  397        6.336423   0.000000
  398        6.907312   0.000000
  399        7.027891   0.000000
  400        7.062059   0.000000
 
  0.3333333E+00 -0.3736539E-16  0.0000000E+00  0.2222222E+00
    1      -21.722185   1.000000
    2      -17.990796   1.000000
    3       -9.224845   1.000000
    4       -6.995761   1.000000
    5       -5.643864   1.000000
    6       -5.337630   1.000000
    7       -5.139596   1.000000
    8       -4.757785   1.000000
    9       -4.319174   1.000000
   10       -4.273914   1.000000
   11       -4.267399   1.000000
   12       -3.898482   1.000000
   13       -3.848037   1.000000
   14       -3.843695   1.000000
   15       -3.834931   1.000000
   16       -3.818842   1.000000
   17       -3.812085   1.000000
   18       -3.782775   1.000000
   19       -3.759876   1.000000
   20       -3.731478   1.000000
   21       -3.722279   1.000000
   22       -3.722055   1.000000
   23       -3.691761   1.000000
   24       -3.669820   1.000000
   25       -3.606641   1.000000
   26       -3.604954   1.000000
   27       -3.597578   1.000000
   28       -3.523903   1.000000
   29       -3.508811   1.000000
   30       -3.482799   1.000000
   31       -3.457481   1.000000
   32       -3.454468   1.000000
   33       -3.438784   1.000000
   34       -3.426319   1.000000
   35       -3.415100   1.000000
   36       -3.396699   1.000000
   37       -3.394883   1.000000
   38       -3.376950   1.000000
   39       -3.359152   1.000000
   40       -3.357141   1.000000
   41       -3.352953   1.000000
   42       -3.351849   1.000000
   43       -3.315802   1.000000
   44       -3.298343   1.000000
   45       -3.293298   1.000000
   46       -3.292164   1.000000
   47       -3.287285   1.000000
   48       -3.286191   1.000000
   49       -3.267847   1.000000
   50       -3.238493   1.000000
   51       -3.225757   1.000000
   52       -3.223529   1.000000
   53       -3.215810   1.000000
   54       -3.180950   1.000000
   55       -3.179387   1.000000
   56       -3.166406   1.000000
   57       -3.166295   1.000000
   58       -3.136200   1.000000
   59       -3.115999   1.000000
   60       -3.114654   1.000000
   61       -3.103261   1.000000
   62       -3.061343   1.000000
   63       -3.053373   1.000000
   64       -2.994850   1.000000
   65       -2.977714   1.000000
   66       -2.967313   1.000000
   67       -2.951450   1.000000
   68       -2.931537   1.000000
   69       -2.931058   1.000000
   70       -2.907083   1.000000
   71       -2.888278   1.000000
   72       -2.884697   1.000000
   73       -2.838214   1.000000
   74       -2.830874   1.000000
   75       -2.791077   1.000000
   76       -2.771691   1.000000
   77       -2.760235   1.000000
   78       -2.753970   1.000000
   79       -2.740839   1.000000
   80       -2.730641   1.000000
   81       -2.729498   1.000000
   82       -2.720059   1.000000
   83       -2.661641   1.000000
   84       -2.633868   1.000000
   85       -2.611469   1.000000
   86       -2.597120   1.000000
   87       -2.589714   1.000000
   88       -2.579623   1.000000
   89       -2.579525   1.000000
   90       -2.562249   1.000000
   91       -2.552480   1.000000
   92       -2.544332   1.000000
   93       -2.538326   1.000000
   94       -2.495755   1.000000
   95       -2.481004   1.000000
   96       -2.417908   1.000000
   97       -2.393806   1.000000
   98       -2.385937   1.000000
   99       -2.360768   1.000000
  100       -2.351379   1.000000
  101       -2.347379   1.000000
  102       -2.337147   1.000000
  103       -2.330097   1.000000
  104       -2.282432   1.000000
  105       -2.276051   1.000000
  106       -2.265096   1.000000
  107       -2.252262   1.000000
  108       -2.219615   1.000000
  109       -2.195900   1.000000
  110       -2.152076   1.000000
  111       -2.127859   1.000000
  112       -2.112348   1.000000
  113       -2.101252   1.000000
  114       -2.074154   1.000000
  115       -2.046125   1.000000
  116       -2.031626   1.000000
  117       -2.005916   1.000000
  118       -1.997148   1.000000
  119       -1.979037   1.000000
  120       -1.973110   1.000000
  121       -1.967037   1.000000
  122       -1.966109   1.000000
  123       -1.931977   1.000000
  124       -1.913575   1.000000
  125       -1.906081   1.000000
  126       -1.895509   1.000000
  127       -1.894550   1.000000
  128       -1.889644   1.000000
  129       -1.873406   1.000000
  130       -1.832168   1.000000
  131       -1.810626   1.000000
  132       -1.807170   1.000000
  133       -1.794700   1.000000
  134       -1.777966   1.000000
  135       -1.765983   1.000000
  136       -1.753396   1.000000
  137       -1.736947   1.000000
  138       -1.728190   1.000000
  139       -1.714431   1.000000
  140       -1.698091   1.000000
  141       -1.677208   1.000000
  142       -1.672440   1.000000
  143       -1.671121   1.000000
  144       -1.653706   1.000000
  145       -1.647874   1.000000
  146       -1.607941   1.000000
  147       -1.601351   1.000000
  148       -1.586959   1.000000
  149       -1.581269   1.000000
  150       -1.561196   1.000000
  151       -1.547589   1.000000
  152       -1.544765   1.000000
  153       -1.542728   1.000000
  154       -1.530334   1.000000
  155       -1.521995   1.000000
  156       -1.516806   1.000000
  157       -1.505089   1.000000
  158       -1.501816   1.000000
  159       -1.492186   1.000000
  160       -1.482002   1.000000
  161       -1.476059   1.000000
  162       -1.461242   1.000000
  163       -1.458606   1.000000
  164       -1.443052   1.000000
  165       -1.441013   1.000000
  166       -1.417174   1.000000
  167       -1.399554   1.000000
  168       -1.396578   1.000000
  169       -1.394109   1.000000
  170       -1.372737   1.000000
  171       -1.371007   1.000000
  172       -1.361452   1.000000
  173       -1.358520   1.000000
  174       -1.345357   1.000000
  175       -1.327345   1.000000
  176       -1.315694   1.000000
  177       -1.300102   1.000000
  178       -1.281993   1.000000
  179       -1.278240   1.000000
  180       -1.268918   1.000000
  181       -1.255057   1.000000
  182       -1.241108   1.000000
  183       -1.223980   1.000000
  184       -1.215458   1.000000
  185       -1.190673   1.000000
  186       -1.179567   1.000000
  187       -1.112827   1.000000
  188       -1.091866   1.000000
  189       -1.079506   1.000000
  190       -1.073241   1.000000
  191       -1.062448   1.000000
  192       -1.054274   1.000000
  193       -1.047971   1.000000
  194       -1.044832   1.000000
  195       -1.028230   1.000000
  196       -1.019115   1.000000
  197       -0.999564   1.000000
  198       -0.989068   1.000000
  199       -0.987034   1.000000
  200       -0.982321   1.000000
  201       -0.970130   1.000000
  202       -0.966052   1.000000
  203       -0.959212   1.000000
  204       -0.945254   1.000000
  205       -0.944151   1.000000
  206       -0.932410   1.000000
  207       -0.896666   1.000000
  208       -0.837892   1.000000
  209       -0.815536   1.000000
  210       -0.808673   1.000000
  211       -0.766659   1.000000
  212       -0.761458   1.000000
  213       -0.753803   1.000000
  214       -0.748275   1.000000
  215       -0.735067   1.000000
  216       -0.734001   1.000000
  217       -0.722247   1.000000
  218       -0.718992   1.000000
  219       -0.707767   1.000000
  220       -0.697331   1.000000
  221       -0.687889   1.000000
  222       -0.687176   1.000000
  223       -0.670154   1.000000
  224       -0.662100   1.000000
  225       -0.645496   1.000000
  226       -0.644931   1.000000
  227       -0.588277   1.000000
  228       -0.555408   1.000000
  229       -0.555124   1.000000
  230       -0.530031   1.000000
  231       -0.514670   1.000000
  232       -0.496218   1.000000
  233       -0.495500   1.000000
  234       -0.491660   1.000000
  235       -0.490752   1.000000
  236       -0.477174   1.000000
  237       -0.469048   1.000000
  238       -0.428291   1.000000
  239       -0.427942   1.000000
  240       -0.415009   1.000000
  241       -0.408994   1.000000
  242       -0.363164   1.000000
  243       -0.362657   1.000000
  244       -0.309528   1.000000
  245       -0.288990   1.000000
  246       -0.266504   1.000000
  247       -0.246451   1.000000
  248       -0.227141   1.000000
  249       -0.202860   1.000000
  250       -0.200605   1.000000
  251       -0.162948   1.000000
  252       -0.162604   1.000000
  253       -0.148052   1.000000
  254       -0.146438   1.000000
  255       -0.133300   1.000000
  256       -0.131779   1.000000
  257       -0.114774   1.000000
  258       -0.088666   1.000000
  259       -0.080578   1.000000
  260       -0.052412   1.000000
  261       -0.042441   1.000000
  262       -0.037223   1.000000
  263       -0.031595   1.000000
  264       -0.018328   1.000000
  265        0.006310   1.000001
  266        0.014834   1.000001
  267        0.021617   1.000002
  268        0.023683   1.000002
  269        0.050382   1.000005
  270        0.058097   1.000006
  271        0.069683   1.000009
  272        0.073945   1.000010
  273        0.094452   1.000019
  274        0.094732   1.000019
  275        0.107872   1.000029
  276        0.109279   1.000030
  277        0.122013   1.000044
  278        0.126278   1.000050
  279        0.139715   1.000074
  280        0.152531   1.000106
  281        0.152791   1.000106
  282        0.169883   1.000169
  283        0.173068   1.000184
  284        0.204163   1.000410
  285        0.264433   1.001655
  286        0.286577   1.002618
  287        0.305397   1.003778
  288        0.308005   1.003968
  289        0.308990   1.004042
  290        0.315870   1.004589
  291        0.337355   1.006694
  292        0.356669   1.009158
  293        0.376667   1.012331
  294        0.379591   1.012849
  295        0.394131   1.015615
  296        0.429673   1.023428
  297        0.448968   1.027843
  298        0.492251   1.035033
  299        0.495009   1.035216
  300        0.497670   1.035346
  301        0.503384   1.035458
  302        0.509976   1.035270
  303        0.519385   1.034328
  304        0.519440   1.034320
  305        0.523980   1.033542
  306        0.524797   1.033378
  307        0.543821   1.027211
  308        0.554115   1.021723
  309        0.574498   1.005467
  310        0.590424   0.987027
  311        0.599307   0.974304
  312        0.601894   0.970255
  313        0.609310   0.957759
  314        0.618324   0.940761
  315        0.620606   0.936138
  316        0.624120   0.928764
  317        0.632123   0.910805
  318        0.636725   0.899744
  319        0.644520   0.879793
  320        0.653679   0.854418
  321        0.664833   0.820780
  322        0.667777   0.811416
  323        0.671232   0.800180
  324        0.683441   0.758419
  325        0.709159   0.661396
  326        0.712787   0.646906
  327        0.717544   0.627670
  328        0.744773   0.514114
  329        0.760724   0.446738
  330        0.764694   0.430086
  331        0.767205   0.419602
  332        0.773680   0.392775
  333        0.776779   0.380059
  334        0.791596   0.320726
  335        0.794877   0.307978
  336        0.819013   0.219859
  337        0.834769   0.168703
  338        0.852778   0.117351
  339        0.909793   0.007829
  340        0.921085  -0.004835
  341        0.932589  -0.015088
  342        0.935488  -0.017278
  343        0.945750  -0.023860
  344        0.997930  -0.035369
  345        1.259500  -0.000894
  346        1.467314  -0.000002
  347        1.575324  -0.000000
  348        1.670780  -0.000000
  349        1.689344  -0.000000
  350        1.706735  -0.000000
  351        2.016806  -0.000000
  352        2.053419  -0.000000
  353        2.146661  -0.000000
  354        2.250169  -0.000000
  355        2.330069  -0.000000
  356        2.413111  -0.000000
  357        2.643359  -0.000000
  358        2.845781  -0.000000
  359        2.919997  -0.000000
  360        2.978162  -0.000000
  361        3.103198  -0.000000
  362        3.128190  -0.000000
  363        3.189294  -0.000000
  364        3.341466  -0.000000
  365        3.432946  -0.000000
  366        3.452192  -0.000000
  367        3.558381  -0.000000
  368        3.607933  -0.000000
  369        3.674586  -0.000000
  370        3.722276  -0.000000
  371        3.738707  -0.000000
  372        3.967149  -0.000000
  373        4.054752  -0.000000
  374        4.327640  -0.000000
  375        4.502021  -0.000000
  376        4.547345  -0.000000
  377        4.601849  -0.000000
  378        4.708220  -0.000000
  379        4.889364  -0.000000
  380        4.999764  -0.000000
  381        5.001772  -0.000000
  382        5.039459  -0.000000
  383        5.085815  -0.000000
  384        5.229483  -0.000000
  385        5.469440  -0.000000
  386        5.575512  -0.000000
  387        5.601432  -0.000000
  388        5.663644  -0.000000
  389        5.670398  -0.000000
  390        5.735427  -0.000000
  391        5.752000  -0.000000
  392        6.076535  -0.000000
  393        6.188290  -0.000000
  394        6.397352   0.000000
  395        6.566355   0.000000
  396        6.634166   0.000000
  397        6.687046   0.000000
  398        6.737927   0.000000
  399        6.756027   0.000000
  400        6.812872   0.000000
 
  0.0000000E+00  0.3333333E+00  0.0000000E+00  0.2222222E+00
    1      -21.722121   1.000000
    2      -17.990828   1.000000
    3       -9.224824   1.000000
    4       -6.995296   1.000000
    5       -5.645268   1.000000
    6       -5.336041   1.000000
    7       -5.139054   1.000000
    8       -4.759857   1.000000
    9       -4.320008   1.000000
   10       -4.270333   1.000000
   11       -4.266162   1.000000
   12       -3.900714   1.000000
   13       -3.848627   1.000000
   14       -3.841795   1.000000
   15       -3.838641   1.000000
   16       -3.830025   1.000000
   17       -3.811603   1.000000
   18       -3.788532   1.000000
   19       -3.743277   1.000000
   20       -3.729746   1.000000
   21       -3.723564   1.000000
   22       -3.722746   1.000000
   23       -3.694077   1.000000
   24       -3.669164   1.000000
   25       -3.605791   1.000000
   26       -3.604308   1.000000
   27       -3.597550   1.000000
   28       -3.516042   1.000000
   29       -3.509092   1.000000
   30       -3.470200   1.000000
   31       -3.456506   1.000000
   32       -3.453636   1.000000
   33       -3.434799   1.000000
   34       -3.426650   1.000000
   35       -3.415801   1.000000
   36       -3.398000   1.000000
   37       -3.391022   1.000000
   38       -3.378559   1.000000
   39       -3.369115   1.000000
   40       -3.358585   1.000000
   41       -3.354768   1.000000
   42       -3.348341   1.000000
   43       -3.313890   1.000000
   44       -3.300663   1.000000
   45       -3.297076   1.000000
   46       -3.293738   1.000000
   47       -3.291366   1.000000
   48       -3.285294   1.000000
   49       -3.268440   1.000000
   50       -3.236965   1.000000
   51       -3.227190   1.000000
   52       -3.219207   1.000000
   53       -3.215890   1.000000
   54       -3.188288   1.000000
   55       -3.179162   1.000000
   56       -3.169264   1.000000
   57       -3.161151   1.000000
   58       -3.137381   1.000000
   59       -3.118785   1.000000
   60       -3.113379   1.000000
   61       -3.106458   1.000000
   62       -3.073564   1.000000
   63       -3.037603   1.000000
   64       -3.002747   1.000000
   65       -2.982057   1.000000
   66       -2.969460   1.000000
   67       -2.957130   1.000000
   68       -2.933411   1.000000
   69       -2.930246   1.000000
   70       -2.904892   1.000000
   71       -2.895961   1.000000
   72       -2.889833   1.000000
   73       -2.850494   1.000000
   74       -2.812893   1.000000
   75       -2.793295   1.000000
   76       -2.779253   1.000000
   77       -2.767787   1.000000
   78       -2.761367   1.000000
   79       -2.735727   1.000000
   80       -2.731041   1.000000
   81       -2.726313   1.000000
   82       -2.706823   1.000000
   83       -2.654889   1.000000
   84       -2.650308   1.000000
   85       -2.614083   1.000000
   86       -2.605030   1.000000
   87       -2.588747   1.000000
   88       -2.583388   1.000000
   89       -2.568888   1.000000
   90       -2.563006   1.000000
   91       -2.553926   1.000000
   92       -2.540454   1.000000
   93       -2.533596   1.000000
   94       -2.496605   1.000000
   95       -2.481958   1.000000
   96       -2.415360   1.000000
   97       -2.391095   1.000000