   67   67 1000    1
  0.3503968E+02  0.1114491E-08  0.1114491E-08  0.2182484E-08  0.0000000E+00
  1.000000000000000E-004
  CAR 
 Si-Diamond                              
    656      5    400
 
  0.0000000E+00  0.0000000E+00  0.0000000E+00  0.1111111E+00
    1      -22.419099   1.000000
    2      -18.258010   1.000000
    3       -9.393762   1.000000
    4       -6.076005   1.000000
    5       -6.041310   1.000000
    6       -5.487219   1.000000
    7       -5.315728   1.000000
    8       -5.057489   1.000000
    9       -5.026431   1.000000
   10       -4.873421   1.000000
   11       -4.409421   1.000000
   12       -4.011013   1.000000
   13       -4.000004   1.000000
   14       -3.999617   1.000000
   15       -3.983526   1.000000
   16       -3.971351   1.000000
   17       -3.969101   1.000000
   18       -3.930019   1.000000
   19       -3.903371   1.000000
   20       -3.902625   1.000000
   21       -3.875792   1.000000
   22       -3.783613   1.000000
   23       -3.771256   1.000000
   24       -3.768481   1.000000
   25       -3.767678   1.000000
   26       -3.616885   1.000000
   27       -3.616130   1.000000
   28       -3.611505   1.000000
   29       -3.463686   1.000000
   30       -3.461362   1.000000
   31       -3.443124   1.000000
   32       -3.419376   1.000000
   33       -3.413643   1.000000
   34       -3.406137   1.000000
   35       -3.391284   1.000000
   36       -3.387317   1.000000
   37       -3.345277   1.000000
   38       -3.266367   1.000000
   39       -3.262138   1.000000
   40       -3.224511   1.000000
   41       -3.204930   1.000000
   42       -3.204617   1.000000
   43       -3.196135   1.000000
   44       -3.195445   1.000000
   45       -3.191378   1.000000
   46       -3.189486   1.000000
   47       -3.186851   1.000000
   48       -3.181592   1.000000
   49       -3.169974   1.000000
   50       -3.160300   1.000000
   51       -3.157135   1.000000
   52       -3.135681   1.000000
   53       -3.125728   1.000000
   54       -3.122684   1.000000
   55       -3.116392   1.000000
   56       -3.080960   1.000000
   57       -3.072629   1.000000
   58       -3.040431   1.000000
   59       -2.938231   1.000000
   60       -2.931562   1.000000
   61       -2.923711   1.000000
   62       -2.903332   1.000000
   63       -2.893851   1.000000
   64       -2.892317   1.000000
   65       -2.848790   1.000000
   66       -2.834279   1.000000
   67       -2.829287   1.000000
   68       -2.821286   1.000000
   69       -2.811333   1.000000
   70       -2.789265   1.000000
   71       -2.780208   1.000000
   72       -2.775566   1.000000
   73       -2.743070   1.000000
   74       -2.741980   1.000000
   75       -2.732751   1.000000
   76       -2.731330   1.000000
   77       -2.717570   1.000000
   78       -2.715224   1.000000
   79       -2.671571   1.000000
   80       -2.648142   1.000000
   81       -2.645480   1.000000
   82       -2.623055   1.000000
   83       -2.611432   1.000000
   84       -2.605885   1.000000
   85       -2.541286   1.000000
   86       -2.491109   1.000000
   87       -2.465929   1.000000
   88       -2.457420   1.000000
   89       -2.456865   1.000000
   90       -2.415420   1.000000
   91       -2.414385   1.000000
   92       -2.369476   1.000000
   93       -2.363019   1.000000
   94       -2.357688   1.000000
   95       -2.352382   1.000000
   96       -2.348265   1.000000
   97       -2.345812   1.000000
   98       -2.315436   1.000000
   99       -2.308049   1.000000
  100       -2.300673   1.000000
  101       -2.287834   1.000000
  102       -2.273057   1.000000
  103       -2.272156   1.000000
  104       -2.263052   1.000000
  105       -2.257090   1.000000
  106       -2.255153   1.000000
  107       -2.243416   1.000000
  108       -2.242183   1.000000
  109       -2.169507   1.000000
  110       -2.085727   1.000000
  111       -2.068519   1.000000
  112       -2.067602   1.000000
  113       -2.045816   1.000000
  114       -2.044309   1.000000
  115       -2.037932   1.000000
  116       -2.032505   1.000000
  117       -2.001835   1.000000
  118       -1.970118   1.000000
  119       -1.938735   1.000000
  120       -1.926429   1.000000
  121       -1.924044   1.000000
  122       -1.916839   1.000000
  123       -1.913580   1.000000
  124       -1.911357   1.000000
  125       -1.903902   1.000000
  126       -1.883970   1.000000
  127       -1.870939   1.000000
  128       -1.806929   1.000000
  129       -1.792100   1.000000
  130       -1.783573   1.000000
  131       -1.757949   1.000000
  132       -1.740975   1.000000
  133       -1.731381   1.000000
  134       -1.711927   1.000000
  135       -1.708955   1.000000
  136       -1.705524   1.000000
  137       -1.700952   1.000000
  138       -1.698816   1.000000
  139       -1.695444   1.000000
  140       -1.691819   1.000000
  141       -1.691612   1.000000
  142       -1.656054   1.000000
  143       -1.636703   1.000000
  144       -1.618136   1.000000
  145       -1.617335   1.000000
  146       -1.536804   1.000000
  147       -1.529635   1.000000
  148       -1.516867   1.000000
  149       -1.515013   1.000000
  150       -1.505489   1.000000
  151       -1.496401   1.000000
  152       -1.486045   1.000000
  153       -1.483805   1.000000
  154       -1.466222   1.000000
  155       -1.442173   1.000000
  156       -1.427323   1.000000
  157       -1.406495   1.000000
  158       -1.394385   1.000000
  159       -1.357858   1.000000
  160       -1.354166   1.000000
  161       -1.348549   1.000000
  162       -1.315971   1.000000
  163       -1.313695   1.000000
  164       -1.285859   1.000000
  165       -1.280583   1.000000
  166       -1.250468   1.000000
  167       -1.245095   1.000000
  168       -1.238778   1.000000
  169       -1.237109   1.000000
  170       -1.222994   1.000000
  171       -1.213772   1.000000
  172       -1.209140   1.000000
  173       -1.198352   1.000000
  174       -1.194886   1.000000
  175       -1.193170   1.000000
  176       -1.191478   1.000000
  177       -1.189103   1.000000
  178       -1.177430   1.000000
  179       -1.172555   1.000000
  180       -1.171905   1.000000
  181       -1.170479   1.000000
  182       -1.168853   1.000000
  183       -1.166665   1.000000
  184       -1.161360   1.000000
  185       -1.160135   1.000000
  186       -1.154324   1.000000
  187       -1.152727   1.000000
  188       -1.142096   1.000000
  189       -1.136629   1.000000
  190       -1.122943   1.000000
  191       -1.120256   1.000000
  192       -1.110214   1.000000
  193       -1.106521   1.000000
  194       -1.052742   1.000000
  195       -1.046895   1.000000
  196       -1.035581   1.000000
  197       -1.006757   1.000000
  198       -1.002389   1.000000
  199       -0.975227   1.000000
  200       -0.930027   1.000000
  201       -0.919367   1.000000
  202       -0.901473   1.000000
  203       -0.901167   1.000000
  204       -0.882375   1.000000
  205       -0.865973   1.000000
  206       -0.835719   1.000000
  207       -0.829006   1.000000
  208       -0.793696   1.000000
  209       -0.772958   1.000000
  210       -0.757653   1.000000
  211       -0.736730   1.000000
  212       -0.732156   1.000000
  213       -0.731321   1.000000
  214       -0.724138   1.000000
  215       -0.723098   1.000000
  216       -0.718836   1.000000
  217       -0.707783   1.000000
  218       -0.704877   1.000000
  219       -0.697018   1.000000
  220       -0.695267   1.000000
  221       -0.687813   1.000000
  222       -0.656492   1.000000
  223       -0.653631   1.000000
  224       -0.649268   1.000000
  225       -0.581026   1.000000
  226       -0.578434   1.000000
  227       -0.574496   1.000000
  228       -0.556605   1.000000
  229       -0.546726   1.000000
  230       -0.542167   1.000000
  231       -0.501346   1.000000
  232       -0.500862   1.000000
  233       -0.492221   1.000000
  234       -0.482104   1.000000
  235       -0.473126   1.000000
  236       -0.448385   1.000000
  237       -0.421951   1.000000
  238       -0.411270   1.000000
  239       -0.401978   1.000000
  240       -0.386286   1.000000
  241       -0.362412   1.000000
  242       -0.358371   1.000000
  243       -0.345901   1.000000
  244       -0.328894   1.000000
  245       -0.316467   1.000000
  246       -0.294470   1.000000
  247       -0.290341   1.000000
  248       -0.259769   1.000000
  249       -0.250768   1.000000
  250       -0.245776   1.000000
  251       -0.233646   1.000000
  252       -0.214462   1.000000
  253       -0.203837   1.000000
  254       -0.188587   1.000000
  255       -0.171496   1.000000
  256       -0.162247   1.000000
  257       -0.158841   1.000000
  258       -0.154495   1.000000
  259       -0.142765   1.000000
  260       -0.142385   1.000000
  261       -0.132518   1.000000
  262       -0.130504   1.000000
  263       -0.125241   1.000000
  264       -0.107028   1.000000
  265       -0.103599   1.000000
  266       -0.056788   1.000000
  267       -0.046931   1.000000
  268        0.000093   1.000000
  269        0.005329   1.000000
  270        0.012943   1.000000
  271        0.024557   1.000000
  272        0.037110   1.000000
  273        0.044866   1.000000
  274        0.047119   1.000000
  275        0.056074   1.000000
  276        0.069184   1.000000
  277        0.075190   1.000001
  278        0.103713   1.000002
  279        0.111312   1.000002
  280        0.118375   1.000003
  281        0.138900   1.000005
  282        0.143763   1.000006
  283        0.145808   1.000006
  284        0.151719   1.000008
  285        0.159600   1.000010
  286        0.234716   1.000096
  287        0.262883   1.000206
  288        0.275372   1.000286
  289        0.328981   1.001042
  290        0.331028   1.001091
  291        0.365053   1.002268
  292        0.388736   1.003622
  293        0.406457   1.005026
  294        0.427712   1.007252
  295        0.442630   1.009214
  296        0.473485   1.014395
  297        0.478302   1.015337
  298        0.489567   1.017662
  299        0.510705   1.022381
  300        0.585950   1.035429
  301        0.603366   1.034547
  302        0.606443   1.034098
  303        0.627020   1.028244
  304        0.633671   1.025129
  305        0.639661   1.021735
  306        0.694480   0.958458
  307        0.704012   0.940515
  308        0.713884   0.919542
  309        0.748335   0.827222
  310        0.752099   0.815395
  311        0.767706   0.763013
  312        0.786659   0.692970
  313        0.797839   0.648962
  314        0.802089   0.631818
  315        0.806324   0.614536
  316        0.808171   0.606944
  317        0.819484   0.559875
  318        0.822330   0.547916
  319        0.826053   0.532221
  320        0.828513   0.521831
  321        0.831852   0.507707
  322        0.834826   0.495125
  323        0.836196   0.489328
  324        0.887113   0.282583
  325        0.887167   0.282378
  326        0.887609   0.280724
  327        0.946669   0.096323
  328        0.947207   0.095023
  329        0.971070   0.044754
  330        0.983028   0.024851
  331        0.984200   0.023083
  332        0.993656   0.009975
  333        1.001293   0.000838
  334        1.005797  -0.003971
  335        1.013585  -0.011320
  336        1.045808  -0.030332
  337        1.048743  -0.031283
  338        1.086701  -0.035220
  339        1.118360  -0.030885
  340        1.126618  -0.029192
  341        1.139557  -0.026323
  342        1.162611  -0.021014
  343        1.162625  -0.021011
  344        1.162983  -0.020930
  345        1.483326  -0.000022
  346        1.686678  -0.000000
  347        1.701183  -0.000000
  348        1.752308  -0.000000
  349        1.838071  -0.000000
  350        1.974427  -0.000000
  351        2.064679  -0.000000
  352        2.604199  -0.000000
  353        2.723271  -0.000000
  354        2.732136  -0.000000
  355        2.946923  -0.000000
  356        3.170316  -0.000000
  357        3.220310  -0.000000
  358        3.288734  -0.000000
  359        3.293044  -0.000000
  360        3.308238  -0.000000
  361        3.344238  -0.000000
  362        3.398742  -0.000000
  363        3.400663  -0.000000
  364        3.808780  -0.000000
  365        3.819181  -0.000000
  366        3.821919  -0.000000
  367        3.834744  -0.000000
  368        3.857114  -0.000000
  369        3.868575  -0.000000
  370        3.888144  -0.000000
  371        3.903508  -0.000000
  372        3.943274  -0.000000
  373        3.959842  -0.000000
  374        4.074083  -0.000000
  375        4.122901  -0.000000
  376        4.148517  -0.000000
  377        4.301663  -0.000000
  378        4.377487  -0.000000
  379        4.554885  -0.000000
  380        4.556195  -0.000000
  381        4.578403  -0.000000
  382        4.664787  -0.000000
  383        4.667460  -0.000000
  384        4.854812  -0.000000
  385        5.134285  -0.000000
  386        5.201059  -0.000000
  387        5.251593  -0.000000
  388        5.276190  -0.000000
  389        5.336038  -0.000000
  390        5.559885  -0.000000
  391        5.678894  -0.000000
  392        5.688301  -0.000000
  393        5.719504  -0.000000
  394        5.746174  -0.000000
  395        5.913631  -0.000000
  396        6.002949  -0.000000
  397        6.187517  -0.000000
  398        6.386621   0.000000
  399        7.068885   0.000000
  400        7.114616   0.000000
 
  0.3333333E+00 -0.3736539E-16  0.0000000E+00  0.2222222E+00
    1      -22.419178   1.000000
    2      -18.258048   1.000000
    3       -9.393776   1.000000
    4       -6.076072   1.000000
    5       -6.041416   1.000000
    6       -5.357758   1.000000
    7       -5.243187   1.000000
    8       -5.052857   1.000000
    9       -5.028889   1.000000
   10       -4.857475   1.000000
   11       -4.650707   1.000000
   12       -4.219687   1.000000
   13       -4.175160   1.000000
   14       -4.174395   1.000000
   15       -3.817313   1.000000
   16       -3.777361   1.000000
   17       -3.759826   1.000000
   18       -3.747082   1.000000
   19       -3.726737   1.000000
   20       -3.720215   1.000000
   21       -3.693947   1.000000
   22       -3.644993   1.000000
   23       -3.639858   1.000000
   24       -3.633421   1.000000
   25       -3.628242   1.000000
   26       -3.607154   1.000000
   27       -3.576564   1.000000
   28       -3.523794   1.000000
   29       -3.521903   1.000000
   30       -3.515170   1.000000
   31       -3.444186   1.000000
   32       -3.429113   1.000000
   33       -3.387194   1.000000
   34       -3.366643   1.000000
   35       -3.364175   1.000000
   36       -3.343955   1.000000
   37       -3.343080   1.000000
   38       -3.325367   1.000000
   39       -3.310438   1.000000
   40       -3.307939   1.000000
   41       -3.287432   1.000000
   42       -3.284586   1.000000
   43       -3.272749   1.000000
   44       -3.269507   1.000000
   45       -3.237970   1.000000
   46       -3.218865   1.000000
   47       -3.217578   1.000000
   48       -3.211441   1.000000
   49       -3.202774   1.000000
   50       -3.197730   1.000000
   51       -3.197173   1.000000
   52       -3.177351   1.000000
   53       -3.157113   1.000000
   54       -3.136233   1.000000
   55       -3.128591   1.000000
   56       -3.113092   1.000000
   57       -3.093725   1.000000
   58       -3.092824   1.000000
   59       -3.088021   1.000000
   60       -3.042500   1.000000
   61       -3.037598   1.000000
   62       -3.022473   1.000000
   63       -3.015385   1.000000
   64       -3.005477   1.000000
   65       -2.963355   1.000000
   66       -2.926247   1.000000
   67       -2.893033   1.000000
   68       -2.886326   1.000000
   69       -2.866200   1.000000
   70       -2.850791   1.000000
   71       -2.847523   1.000000
   72       -2.821769   1.000000
   73       -2.816141   1.000000
   74       -2.799898   1.000000
   75       -2.758461   1.000000
   76       -2.737157   1.000000
   77       -2.722992   1.000000
   78       -2.710848   1.000000
   79       -2.699458   1.000000
   80       -2.672895   1.000000
   81       -2.672084   1.000000
   82       -2.656880   1.000000
   83       -2.631358   1.000000
   84       -2.591262   1.000000
   85       -2.588392   1.000000
   86       -2.556693   1.000000
   87       -2.534290   1.000000
   88       -2.530192   1.000000
   89       -2.516970   1.000000
   90       -2.511733   1.000000
   91       -2.495731   1.000000
   92       -2.470421   1.000000
   93       -2.464668   1.000000
   94       -2.459635   1.000000
   95       -2.424455   1.000000
   96       -2.423368   1.000000
   97       -2.376263   1.000000
   98       -2.328815   1.000000
   99       -2.320298   1.000000
  100       -2.292267   1.000000
  101       -2.278985   1.000000
  102       -2.273109   1.000000
  103       -2.260467   1.000000
  104       -2.255717   1.000000
  105       -2.232687   1.000000
  106       -2.215680   1.000000
  107       -2.189761   1.000000
  108       -2.164671   1.000000
  109       -2.147577   1.000000
  110       -2.119525   1.000000
  111       -2.077107   1.000000
  112       -2.063440   1.000000
  113       -2.047983   1.000000
  114       -2.034427   1.000000
  115       -1.996725   1.000000
  116       -1.976693   1.000000
  117       -1.965641   1.000000
  118       -1.933600   1.000000
  119       -1.924524   1.000000
  120       -1.913382   1.000000
  121       -1.901910   1.000000
  122       -1.891031   1.000000
  123       -1.880317   1.000000
  124       -1.854398   1.000000
  125       -1.844570   1.000000
  126       -1.829822   1.000000
  127       -1.824339   1.000000
  128       -1.819870   1.000000
  129       -1.798013   1.000000
  130       -1.793085   1.000000
  131       -1.778558   1.000000
  132       -1.753007   1.000000
  133       -1.738876   1.000000
  134       -1.724223   1.000000
  135       -1.699126   1.000000
  136       -1.697890   1.000000
  137       -1.678330   1.000000
  138       -1.676167   1.000000
  139       -1.652671   1.000000
  140       -1.645585   1.000000
  141       -1.628388   1.000000
  142       -1.615636   1.000000
  143       -1.610781   1.000000
  144       -1.584023   1.000000
  145       -1.573683   1.000000
  146       -1.562070   1.000000
  147       -1.555805   1.000000
  148       -1.551274   1.000000
  149       -1.516787   1.000000
  150       -1.506274   1.000000
  151       -1.496967   1.000000
  152       -1.476652   1.000000
  153       -1.472720   1.000000
  154       -1.468175   1.000000
  155       -1.450090   1.000000
  156       -1.448840   1.000000
  157       -1.433935   1.000000
  158       -1.424988   1.000000
  159       -1.421294   1.000000
  160       -1.418639   1.000000
  161       -1.412131   1.000000
  162       -1.403695   1.000000
  163       -1.394040   1.000000
  164       -1.383323   1.000000
  165       -1.373934   1.000000
  166       -1.367770   1.000000
  167       -1.345907   1.000000
  168       -1.333828   1.000000
  169       -1.323304   1.000000
  170       -1.318374   1.000000
  171       -1.310113   1.000000
  172       -1.285830   1.000000
  173       -1.285043   1.000000
  174       -1.277947   1.000000
  175       -1.263697   1.000000
  176       -1.256378   1.000000
  177       -1.228793   1.000000
  178       -1.218405   1.000000
  179       -1.202138   1.000000
  180       -1.194126   1.000000
  181       -1.190193   1.000000
  182       -1.181366   1.000000
  183       -1.176890   1.000000
  184       -1.154875   1.000000
  185       -1.151255   1.000000
  186       -1.108483   1.000000
  187       -1.091822   1.000000
  188       -1.075433   1.000000
  189       -1.046155   1.000000
  190       -1.028550   1.000000
  191       -0.998802   1.000000
  192       -0.993681   1.000000
  193       -0.980125   1.000000
  194       -0.975879   1.000000
  195       -0.960495   1.000000
  196       -0.950945   1.000000
  197       -0.941060   1.000000
  198       -0.929053   1.000000
  199       -0.917638   1.000000
  200       -0.913666   1.000000
  201       -0.912900   1.000000
  202       -0.906228   1.000000
  203       -0.881273   1.000000
  204       -0.873688   1.000000
  205       -0.873150   1.000000
  206       -0.861608   1.000000
  207       -0.844072   1.000000
  208       -0.785803   1.000000
  209       -0.779916   1.000000
  210       -0.743299   1.000000
  211       -0.742948   1.000000
  212       -0.703258   1.000000
  213       -0.702346   1.000000
  214       -0.680260   1.000000
  215       -0.671917   1.000000
  216       -0.662433   1.000000
  217       -0.646592   1.000000
  218       -0.643557   1.000000
  219       -0.635640   1.000000
  220       -0.630300   1.000000
  221       -0.615131   1.000000
  222       -0.599949   1.000000
  223       -0.594982   1.000000
  224       -0.586750   1.000000
  225       -0.579314   1.000000
  226       -0.569410   1.000000
  227       -0.525434   1.000000
  228       -0.483775   1.000000
  229       -0.478921   1.000000
  230       -0.473598   1.000000
  231       -0.448231   1.000000
  232       -0.437142   1.000000
  233       -0.435323   1.000000
  234       -0.424750   1.000000
  235       -0.419219   1.000000
  236       -0.406336   1.000000
  237       -0.390809   1.000000
  238       -0.374716   1.000000
  239       -0.358082   1.000000
  240       -0.330410   1.000000
  241       -0.327483   1.000000
  242       -0.309175   1.000000
  243       -0.235891   1.000000
  244       -0.235406   1.000000
  245       -0.209256   1.000000
  246       -0.190106   1.000000
  247       -0.174664   1.000000
  248       -0.155444   1.000000
  249       -0.114300   1.000000
  250       -0.108646   1.000000
  251       -0.102130   1.000000
  252       -0.094038   1.000000
  253       -0.085899   1.000000
  254       -0.068790   1.000000
  255       -0.044452   1.000000
  256       -0.044062   1.000000
  257       -0.035294   1.000000
  258       -0.029103   1.000000
  259       -0.012383   1.000000
  260       -0.000754   1.000000
  261        0.021619   1.000000
  262        0.039679   1.000000
  263        0.052583   1.000000
  264        0.052737   1.000000
  265        0.079305   1.000001
  266        0.083910   1.000001
  267        0.089609   1.000001
  268        0.102963   1.000002
  269        0.126324   1.000003
  270        0.129323   1.000004
  271        0.136462   1.000005
  272        0.141481   1.000006
  273        0.160328   1.000010
  274        0.160463   1.000010
  275        0.179757   1.000019
  276        0.195889   1.000031
  277        0.202386   1.000038
  278        0.205558   1.000042
  279        0.222499   1.000068
  280        0.235947   1.000100
  281        0.241490   1.000116
  282        0.266826   1.000229
  283        0.277205   1.000299
  284        0.286493   1.000379
  285        0.313235   1.000725
  286        0.351794   1.001719
  287        0.371431   1.002581
  288        0.372614   1.002643
  289        0.380636   1.003098
  290        0.412694   1.005614
  291        0.414968   1.005841
  292        0.435332   1.008211
  293        0.461206   1.012153
  294        0.461300   1.012169
  295        0.487118   1.017142
  296        0.523207   1.025271
  297        0.524636   1.025600
  298        0.555144   1.032038
  299        0.571604   1.034455
  300        0.578396   1.035075
  301        0.584190   1.035381
  302        0.589955   1.035452
  303        0.591200   1.035434
  304        0.595603   1.035267
  305        0.601711   1.034749
  306        0.615084   1.032279
  307        0.629864   1.026993
  308        0.649199   1.015083
  309        0.651944   1.012867
  310        0.663740   1.001686
  311        0.664966   1.000363
  312        0.687279   0.970543
  313        0.688356   0.968814
  314        0.699246   0.949769
  315        0.699500   0.949288
  316        0.705830   0.936837
  317        0.706010   0.936468
  318        0.712899   0.921746
  319        0.727333   0.887013
  320        0.731179   0.876871
  321        0.750341   0.820961
  322        0.750980   0.818944
  323        0.767073   0.765237
  324        0.780911   0.714876
  325        0.790469   0.678170
  326        0.798074   0.648022
  327        0.809065   0.603259
  328        0.825228   0.535702
  329        0.834378   0.497021
  330        0.847553   0.441428
  331        0.853255   0.417583
  332        0.854489   0.412448
  333        0.863774   0.374221
  334        0.873039   0.336955
  335        0.878366   0.316025
  336        0.904882   0.218821
  337        0.955237   0.076510
  338        0.969556   0.047522
  339        0.992034   0.012080
  340        1.016101  -0.013443
  341        1.020780  -0.017078
  342        1.026333  -0.020887
  343        1.093676  -0.034671
  344        1.177347  -0.017754
  345        1.279992  -0.003527
  346        1.579206  -0.000001
  347        1.614395  -0.000000
  348        1.729936  -0.000000
  349        1.782738  -0.000000
  350        1.843811  -0.000000
  351        2.066401  -0.000000
  352        2.126518  -0.000000
  353        2.237527  -0.000000
  354        2.333031  -0.000000
  355        2.392126  -0.000000
  356        2.521781  -0.000000
  357        2.744738  -0.000000
  358        2.933913  -0.000000
  359        2.949832  -0.000000
  360        3.068088  -0.000000
  361        3.152781  -0.000000
  362        3.166196  -0.000000
  363        3.267340  -0.000000
  364        3.340292  -0.000000
  365        3.401470  -0.000000
  366        3.508666  -0.000000
  367        3.547176  -0.000000
  368        3.575590  -0.000000
  369        3.702839  -0.000000
  370        3.805103  -0.000000
  371        3.849353  -0.000000
  372        3.911440  -0.000000
  373        3.979495  -0.000000
  374        4.137176  -0.000000
  375        4.396081  -0.000000
  376        4.556813  -0.000000
  377        4.680410  -0.000000
  378        4.689355  -0.000000
  379        4.799850  -0.000000
  380        4.976583  -0.000000
  381        5.081705  -0.000000
  382        5.103507  -0.000000
  383        5.104600  -0.000000
  384        5.232850  -0.000000
  385        5.249915  -0.000000
  386        5.557679  -0.000000
  387        5.627446  -0.000000
  388        5.689126  -0.000000
  389        5.727456  -0.000000
  390        5.807792  -0.000000
  391        5.826653  -0.000000
  392        5.937741  -0.000000
  393        6.077950  -0.000000
  394        6.244838  -0.000000
  395        6.359179   0.000000
  396        6.588895   0.000000
  397        6.677836   0.000000
  398        6.699432   0.000000
  399        6.812734   0.000000
  400        6.831925   0.000000
 
  0.0000000E+00  0.3333333E+00  0.0000000E+00  0.2222222E+00
    1      -22.419183   1.000000
    2      -18.258047   1.000000
    3       -9.393774   1.000000
    4       -6.075902   1.000000
    5       -6.041562   1.000000
    6       -5.354265   1.000000
    7       -5.249565   1.000000
    8       -5.055383   1.000000
    9       -5.022817   1.000000
   10       -4.859721   1.000000
   11       -4.647076   1.000000
   12       -4.219460   1.000000
   13       -4.178517   1.000000
   14       -4.173958   1.000000
   15       -3.820800   1.000000
   16       -3.775274   1.000000
   17       -3.760676   1.000000
   18       -3.743400   1.000000
   19       -3.725972   1.000000
   20       -3.721299   1.000000
   21       -3.693040   1.000000
   22       -3.646968   1.000000
   23       -3.641666   1.000000
   24       -3.633567   1.000000
   25       -3.626992   1.000000
   26       -3.608857   1.000000
   27       -3.573922   1.000000
   28       -3.524269   1.000000
   29       -3.523432   1.000000
   30       -3.514996   1.000000
   31       -3.439595   1.000000
   32       -3.431252   1.000000
   33       -3.385020   1.000000
   34       -3.370688   1.000000
   35       -3.366184   1.000000
   36       -3.347934   1.000000
   37       -3.342554   1.000000
   38       -3.327235   1.000000
   39       -3.306765   1.000000
   40       -3.304999   1.000000
   41       -3.292848   1.000000
   42       -3.282708   1.000000
   43       -3.273431   1.000000
   44       -3.269982   1.000000
   45       -3.234723   1.000000
   46       -3.216998   1.000000
   47       -3.214882   1.000000
   48       -3.211780   1.000000
   49       -3.209176   1.000000
   50       -3.197438   1.000000
   51       -3.191879   1.000000
   52       -3.184382   1.000000
   53       -3.149635   1.000000
   54       -3.133488   1.000000
   55       -3.129463   1.000000
   56       -3.115681   1.000000
   57       -3.096316   1.000000
   58       -3.087952   1.000000
   59       -3.083569   1.000000
   60       -3.039429   1.000000
   61       -3.036210   1.000000
   62       -3.021752   1.000000
   63       -3.010690   1.000000
   64       -3.004080   1.000000
   65       -2.964463   1.000000
   66       -2.923267   1.000000
   67       -2.899665   1.000000
   68       -2.890247   1.000000
   69       -2.862846   1.000000
   70       -2.855814   1.000000
   71       -2.841236   1.000000
   72       -2.834704   1.000000
   73       -2.817176   1.000000
   74       -2.799727   1.000000
   75       -2.754468   1.000000
   76       -2.732745   1.000000
   77       -2.725520   1.000000
   78       -2.707104   1.000000
   79       -2.699877   1.000000
   80       -2.683080   1.000000
   81       -2.670083   1.000000
   82       -2.653009   1.000000
   83       -2.635044   1.000000
   84       -2.593198   1.000000
   85       -2.580045   1.000000
   86       -2.556956   1.000000
   87       -2.538278   1.000000
   88       -2.526949   1.000000
   89       -2.521897   1.000000
   90       -2.506925   1.000000
   91       -2.491322   1.000000
   92       -2.476968   1.000000
   93       -2.464820   1.000000
   94       -2.457896   1.000000
   95       -2.432583   1.000000
   96       -2.426953   1.000000
   97       -2.362211   1.000000