 vasp.5.4.4.18Apr17-6-g9f103f2a35 (build Aug 16 2021 22:57:11) complex          
  
 POSCAR found type information on POSCAR  Pd N  O 
 04/POSCAR found :  3 types and      67 ions
 scaLAPACK will be used

 ----------------------------------------------------------------------------- 
|                                                                             |
|  ADVICE TO THIS USER RUNNING 'VASP/VAMP'   (HEAR YOUR MASTER'S VOICE ...):  |
|                                                                             |
|      You have a (more or less) 'large supercell' and for larger cells       |
|      it might be more efficient to use real space projection opertators     |
|      So try LREAL= Auto  in the INCAR   file.                               |
|      Mind:          For very  accurate calculation you might also keep the  |
|      reciprocal projection scheme          (i.e. LREAL=.FALSE.)             |
|                                                                             |
 ----------------------------------------------------------------------------- 

 LDA part: xc-table for Pade appr. of Perdew
 00/POSCAR found :  3 types and      67 ions
 06/POSCAR found :  3 types and      67 ions
 Jacobian:    26.7849458530529     
 POSCAR, INCAR and KPOINTS ok, starting setup
 FFT: planning ...
 WAVECAR not read
 entering main loop
       N       E                     dE             d eps       ncg     rms          rms(c)
DAV:   1     0.381649474993E+04    0.38165E+04   -0.26680E+05  4072   0.117E+03
DAV:   2    -0.124951516256E+03   -0.39414E+04   -0.36909E+04  4464   0.285E+02
DAV:   3    -0.348536115640E+03   -0.22358E+03   -0.20035E+03  4480   0.614E+01
DAV:   4    -0.356388113986E+03   -0.78520E+01   -0.75621E+01  4712   0.113E+01
DAV:   5    -0.356642588078E+03   -0.25447E+00   -0.25365E+00  4688   0.215E+00    0.514E+01
DAV:   6    -0.347005330181E+03    0.96373E+01   -0.67038E+01  4240   0.226E+01    0.396E+01
DAV:   7    -0.421648671972E+03   -0.74643E+02   -0.45778E+01  4656   0.590E+01    0.651E+01
DAV:   8    -0.361741174661E+03    0.59907E+02   -0.45111E+01  4456   0.330E+01    0.444E+01
DAV:   9    -0.345001622767E+03    0.16740E+02   -0.38865E+01  4256   0.287E+01    0.240E+01
DAV:  10    -0.342734749576E+03    0.22669E+01   -0.15874E+01  4136   0.177E+01    0.201E+01
DAV:  11    -0.340743051220E+03    0.19917E+01   -0.91459E+00  4192   0.145E+01    0.161E+01
DAV:  12    -0.339700977677E+03    0.10421E+01   -0.37579E+00  4152   0.879E+00    0.114E+01
DAV:  13    -0.339016387053E+03    0.68459E+00   -0.19008E+00  4152   0.586E+00    0.777E+00
DAV:  14    -0.338974321981E+03    0.42065E-01   -0.12523E+00  4128   0.431E+00    0.739E+00
DAV:  15    -0.338754561091E+03    0.21976E+00   -0.53940E-01  4168   0.309E+00    0.426E+00
DAV:  16    -0.338665865037E+03    0.88696E-01   -0.30803E-01  4128   0.251E+00    0.323E+00
DAV:  17    -0.338649351223E+03    0.16514E-01   -0.20397E-01  4120   0.184E+00    0.262E+00
DAV:  18    -0.338612052804E+03    0.37298E-01   -0.74362E-02  4152   0.118E+00    0.152E+00
DAV:  19    -0.338604132015E+03    0.79208E-02   -0.45429E-02  4216   0.883E-01    0.129E+00
DAV:  20    -0.338600191385E+03    0.39406E-02   -0.29039E-02  4184   0.662E-01    0.992E-01
DAV:  21    -0.338594845415E+03    0.53460E-02   -0.14457E-02  4216   0.499E-01    0.631E-01
DAV:  22    -0.338593156650E+03    0.16888E-02   -0.60984E-03  4192   0.326E-01    0.388E-01
DAV:  23    -0.338592862927E+03    0.29372E-03   -0.35394E-03  4264   0.237E-01    0.383E-01
DAV:  24    -0.338592246788E+03    0.61614E-03   -0.20120E-03  4208   0.168E-01    0.262E-01
DAV:  25    -0.338592159651E+03    0.87137E-04   -0.11270E-03  4168   0.130E-01    0.182E-01
DAV:  26    -0.338592248876E+03   -0.89225E-04   -0.71728E-04  4144   0.105E-01    0.142E-01
DAV:  27    -0.338592406141E+03   -0.15727E-03   -0.42468E-04  4056   0.744E-02    0.129E-01
DAV:  28    -0.338592518933E+03   -0.11279E-03   -0.33458E-04  4088   0.691E-02    0.878E-02
DAV:  29    -0.338592721084E+03   -0.20215E-03   -0.19116E-04  4120   0.509E-02    0.942E-02
DAV:  30    -0.338592995269E+03   -0.27419E-03   -0.15062E-04  4064   0.450E-02    0.669E-02
DAV:  31    -0.338593312856E+03   -0.31759E-03   -0.99083E-05  4072   0.371E-02    0.417E-02
DAV:  32    -0.338593762503E+03   -0.44965E-03   -0.94238E-05  4096   0.286E-02    0.515E-02
DAV:  33    -0.338593955096E+03   -0.19259E-03   -0.41500E-05  4224   0.227E-02    0.369E-02
DAV:  34    -0.338594135784E+03   -0.18069E-03   -0.23375E-05  4144   0.164E-02    0.328E-02
DAV:  35    -0.338594425995E+03   -0.29021E-03   -0.30971E-05  4136   0.173E-02    0.268E-02
DAV:  36    -0.338594583210E+03   -0.15721E-03   -0.17734E-05  4160   0.128E-02    0.207E-02
DAV:  37    -0.338594741056E+03   -0.15785E-03   -0.81947E-06  3368   0.102E-02    0.119E-02
DAV:  38    -0.338594890964E+03   -0.14991E-03   -0.43575E-06  3184   0.743E-03    0.133E-02
DAV:  39    -0.338595126460E+03   -0.23550E-03   -0.66654E-06  3272   0.796E-03    0.115E-02
DAV:  40    -0.338595227098E+03   -0.10064E-03   -0.28144E-06  3136   0.541E-03    0.104E-02
DAV:  41    -0.338595374403E+03   -0.14730E-03   -0.44433E-06  3184   0.401E-03    0.799E-03
DAV:  42    -0.338595422107E+03   -0.47705E-04   -0.13078E-06  2816   0.307E-03    0.470E-03
DAV:  43    -0.338595457181E+03   -0.35074E-04   -0.11364E-06  2744   0.220E-03    0.368E-03
DAV:  44    -0.338595473347E+03   -0.16165E-04   -0.50016E-07  2504   0.178E-03    0.183E-03
DAV:  45    -0.338595481745E+03   -0.83985E-05   -0.31492E-07  2376   0.976E-04    0.171E-03
DAV:  46    -0.338595486134E+03   -0.43890E-05   -0.17494E-07  2448   0.785E-04    0.125E-03
DAV:  47    -0.338595488203E+03   -0.20691E-05   -0.11387E-07  2376   0.543E-04    0.114E-03
DAV:  48    -0.338595488998E+03   -0.79435E-06   -0.53962E-08  2440   0.401E-04
   1 F= -.33859549E+03 E0= -.33849151E+03  d E =-.338595E+03
quench:  g(F)=  0.000E+00 g(S)=  0.000E+00 dE (1.order)= 0.000E+00
 bond charge predicted
       N       E                     dE             d eps       ncg     rms          rms(c)
DAV:   1    -0.338595544745E+03   -0.56541E-04   -0.36292E-05  4008   0.772E-03    0.178E-03
DAV:   2    -0.338595545436E+03   -0.69111E-06   -0.12007E-06  2520   0.310E-03    0.752E-03
DAV:   3    -0.338595545089E+03    0.34664E-06   -0.38318E-07  2216   0.275E-03    0.272E-03
DAV:   4    -0.338595545100E+03   -0.11292E-07   -0.80987E-08  2136   0.137E-03    0.167E-03
DAV:   5    -0.338595545218E+03   -0.11744E-06   -0.87955E-08  2184   0.125E-03
   2 F= -.33859555E+03 E0= -.33849157E+03  d E =-.562203E-04
quench:  g(F)=  0.000E+00 g(S)=  0.000E+00 dE (1.order)= 0.000E+00
 bond charge predicted
       N       E                     dE             d eps       ncg     rms          rms(c)
DAV:   1    -0.338595655442E+03   -0.11034E-03   -0.14471E-04  4056   0.155E-02    0.381E-03
DAV:   2    -0.338595656212E+03   -0.76945E-06   -0.39807E-06  2800   0.434E-03    0.780E-03
DAV:   3    -0.338595655898E+03    0.31407E-06   -0.77428E-07  2152   0.369E-03    0.383E-03
DAV:   4    -0.338595656006E+03   -0.10798E-06   -0.42263E-07  2104   0.274E-03    0.476E-03
DAV:   5    -0.338595656332E+03   -0.32601E-06   -0.56202E-07  2176   0.357E-03
   3 F= -.33859566E+03 E0= -.33849170E+03  d E =-.111114E-03
quench:  g(F)=  0.000E+00 g(S)=  0.000E+00 dE (1.order)= 0.000E+00
 bond charge predicted
       N       E                     dE             d eps       ncg     rms          rms(c)
DAV:   1    -0.338595820703E+03   -0.16470E-03   -0.32492E-04  4024   0.234E-02    0.602E-03
DAV:   2    -0.338595823820E+03   -0.31176E-05   -0.10702E-05  3704   0.900E-03    0.183E-02
DAV:   3    -0.338595822388E+03    0.14319E-05   -0.34869E-06  2328   0.848E-03    0.128E-02
DAV:   4    -0.338595821399E+03    0.98973E-06   -0.11427E-06  2208   0.486E-03    0.406E-03
DAV:   5    -0.338595821761E+03   -0.36226E-06   -0.81540E-07  2112   0.376E-03
   4 F= -.33859582E+03 E0= -.33849185E+03  d E =-.165429E-03
quench:  g(F)=  0.000E+00 g(S)=  0.000E+00 dE (1.order)= 0.000E+00
 bond charge predicted
       N       E                     dE             d eps       ncg     rms          rms(c)
DAV:   1    -0.338596040354E+03   -0.21896E-03   -0.57706E-04  4000   0.311E-02    0.903E-03
DAV:   2    -0.338596048766E+03   -0.84113E-05   -0.24984E-05  4048   0.152E-02    0.322E-02
DAV:   3    -0.338596042455E+03    0.63107E-05   -0.10474E-05  2896   0.130E-02    0.136E-02
DAV:   4    -0.338596042439E+03    0.16094E-07   -0.30309E-06  2312   0.784E-03    0.137E-02
DAV:   5    -0.338596041605E+03    0.83363E-06   -0.18558E-06  2248   0.598E-03
   5 F= -.33859604E+03 E0= -.33849208E+03  d E =-.219844E-03
quench:  g(F)=  0.000E+00 g(S)=  0.000E+00 dE (1.order)= 0.000E+00
 bond charge predicted
       N       E                     dE             d eps       ncg     rms          rms(c)
DAV:   1    -0.338596313935E+03   -0.27150E-03   -0.89696E-04  4000   0.388E-02    0.116E-02
DAV:   2    -0.338596326827E+03   -0.12892E-04   -0.38563E-05  4080   0.209E-02    0.376E-02
DAV:   3    -0.338596315931E+03    0.10896E-04   -0.13258E-05  3960   0.165E-02    0.130E-02
DAV:   4    -0.338596316514E+03   -0.58264E-06   -0.33406E-06  2400   0.783E-03    0.149E-02
DAV:   5    -0.338596316464E+03    0.49848E-07   -0.34347E-06  2392   0.849E-03
   6 F= -.33859632E+03 E0= -.33849235E+03  d E =-.274859E-03
quench:  g(F)=  0.000E+00 g(S)=  0.000E+00 dE (1.order)= 0.000E+00
 bond charge predicted
       N       E                     dE             d eps       ncg     rms          rms(c)
DAV:   1    -0.338596640630E+03   -0.32412E-03   -0.12914E-03  4000   0.468E-02    0.156E-02
DAV:   2    -0.338596672802E+03   -0.32172E-04   -0.77770E-05  4128   0.300E-02    0.647E-02
DAV:   3    -0.338596645938E+03    0.26864E-04   -0.41926E-05  4272   0.256E-02    0.242E-02
DAV:   4    -0.338596644810E+03    0.11284E-05   -0.84453E-06  2688   0.129E-02    0.213E-02
DAV:   5    -0.338596642608E+03    0.22015E-05   -0.43516E-06  2608   0.904E-03    0.982E-03
DAV:   6    -0.338596643311E+03   -0.70209E-06   -0.27857E-06  2352   0.748E-03
   7 F= -.33859664E+03 E0= -.33849269E+03  d E =-.326847E-03
quench:  g(F)=  0.000E+00 g(S)=  0.000E+00 dE (1.order)= 0.000E+00
 bond charge predicted
       N       E                     dE             d eps       ncg     rms          rms(c)
DAV:   1    -0.338597017876E+03   -0.37527E-03   -0.17558E-03  4000   0.543E-02    0.136E-02
DAV:   2    -0.338597027192E+03   -0.93157E-05   -0.50611E-05  4016   0.149E-02    0.289E-02
DAV:   3    -0.338597022581E+03    0.46105E-05   -0.11386E-05  3072   0.131E-02    0.153E-02
DAV:   4    -0.338597027290E+03   -0.47088E-05   -0.78123E-06  2568   0.133E-02    0.295E-02
DAV:   5    -0.338597022683E+03    0.46072E-05   -0.59478E-06  2552   0.117E-02    0.133E-02
DAV:   6    -0.338597022399E+03    0.28443E-06   -0.38320E-06  2424   0.825E-03
   8 F= -.33859702E+03 E0= -.33849307E+03  d E =-.379088E-03
quench:  g(F)=  0.000E+00 g(S)=  0.000E+00 dE (1.order)= 0.000E+00
 bond charge predicted
       N       E                     dE             d eps       ncg     rms          rms(c)
DAV:   1    -0.338597447102E+03   -0.42442E-03   -0.22893E-03  4000   0.616E-02    0.155E-02
DAV:   2    -0.338597458288E+03   -0.11186E-04   -0.64353E-05  4032   0.157E-02    0.311E-02
DAV:   3    -0.338597453349E+03    0.49390E-05   -0.16330E-05  3320   0.149E-02    0.175E-02
DAV:   4    -0.338597462130E+03   -0.87814E-05   -0.11963E-05  2712   0.163E-02    0.384E-02
DAV:   5    -0.338597452904E+03    0.92261E-05   -0.82182E-06  2584   0.142E-02    0.137E-02
DAV:   6    -0.338597452731E+03    0.17291E-06   -0.41216E-06  2424   0.857E-03
   9 F= -.33859745E+03 E0= -.33849352E+03  d E =-.430333E-03
quench:  g(F)=  0.000E+00 g(S)=  0.000E+00 dE (1.order)= 0.000E+00
 bond charge predicted
       N       E                     dE             d eps       ncg     rms          rms(c)
DAV:   1    -0.338597926355E+03   -0.47345E-03   -0.28849E-03  4000   0.691E-02    0.173E-02
DAV:   2    -0.338597940023E+03   -0.13668E-04   -0.80562E-05  4024   0.180E-02    0.335E-02
DAV:   3    -0.338597935262E+03    0.47613E-05   -0.19583E-05  3832   0.172E-02    0.228E-02
DAV:   4    -0.338597940783E+03   -0.55214E-05   -0.13773E-05  2976   0.173E-02    0.355E-02
DAV:   5    -0.338597934525E+03    0.62585E-05   -0.90989E-06  2792   0.143E-02    0.181E-02
DAV:   6    -0.338597932834E+03    0.16903E-05   -0.48536E-06  2512   0.955E-03    0.104E-02
DAV:   7    -0.338597933087E+03   -0.25305E-06   -0.31018E-06  2320   0.676E-03
  10 F= -.33859793E+03 E0= -.33849403E+03  d E =-.480356E-03
quench:  g(F)=  0.000E+00 g(S)=  0.000E+00 dE (1.order)= 0.000E+00
 bond charge predicted
       N       E                     dE             d eps       ncg     rms          rms(c)
DAV:   1    -0.338598454191E+03   -0.52136E-03   -0.35420E-03  4000   0.764E-02    0.175E-02
DAV:   2    -0.338598470668E+03   -0.16477E-04   -0.95231E-05  4032   0.200E-02    0.370E-02
DAV:   3    -0.338598466929E+03    0.37395E-05   -0.16300E-05  3792   0.184E-02    0.303E-02
DAV:   4    -0.338598463976E+03    0.29522E-05   -0.12410E-05  3272   0.158E-02    0.218E-02
DAV:   5    -0.338598464811E+03   -0.83494E-06   -0.89231E-06  2952   0.122E-02
  11 F= -.33859846E+03 E0= -.33849456E+03  d E =-.531724E-03
quench:  g(F)=  0.000E+00 g(S)=  0.000E+00 dE (1.order)= 0.000E+00
 bond charge predicted
       N       E                     dE             d eps       ncg     rms          rms(c)
DAV:   1    -0.338599030298E+03   -0.56632E-03   -0.42740E-03  4000   0.847E-02    0.243E-02
DAV:   2    -0.338599074653E+03   -0.44355E-04   -0.16047E-04  4048   0.345E-02    0.719E-02
DAV:   3    -0.338599042129E+03    0.32524E-04   -0.62813E-05  4176   0.309E-02    0.283E-02
DAV:   4    -0.338599048961E+03   -0.68323E-05   -0.20371E-05  3912   0.192E-02    0.409E-02
DAV:   5    -0.338599042591E+03    0.63698E-05   -0.20423E-05  3680   0.202E-02    0.260E-02
DAV:   6    -0.338599039660E+03    0.29316E-05   -0.84590E-06  3080   0.136E-02    0.151E-02
DAV:   7    -0.338599038365E+03    0.12945E-05   -0.47472E-06  2720   0.101E-02    0.994E-03
DAV:   8    -0.338599038669E+03   -0.30353E-06   -0.24327E-06  2264   0.643E-03
  12 F= -.33859904E+03 E0= -.33849513E+03  d E =-.573857E-03
quench:  g(F)=  0.000E+00 g(S)=  0.000E+00 dE (1.order)= 0.000E+00
 bond charge predicted
       N       E                     dE             d eps       ncg     rms          rms(c)
DAV:   1    -0.338599650340E+03   -0.61197E-03   -0.50560E-03  4000   0.910E-02    0.206E-02
DAV:   2    -0.338599675579E+03   -0.25239E-04   -0.14044E-04  4016   0.256E-02    0.481E-02
DAV:   3    -0.338599666784E+03    0.87952E-05   -0.26234E-05  4136   0.217E-02    0.331E-02
DAV:   4    -0.338599665640E+03    0.11438E-05   -0.16785E-05  3568   0.187E-02    0.302E-02
DAV:   5    -0.338599665476E+03    0.16425E-06   -0.14197E-05  3776   0.161E-02    0.284E-02
DAV:   6    -0.338599661689E+03    0.37863E-05   -0.96207E-06  3080   0.129E-02    0.156E-02
DAV:   7    -0.338599660577E+03    0.11120E-05   -0.33122E-06  2472   0.800E-03    0.951E-03
DAV:   8    -0.338599660619E+03   -0.41371E-07   -0.20600E-06  2400   0.598E-03
  13 F= -.33859966E+03 E0= -.33849578E+03  d E =-.621950E-03
quench:  g(F)=  0.000E+00 g(S)=  0.000E+00 dE (1.order)= 0.000E+00
 bond charge predicted
       N       E                     dE             d eps       ncg     rms          rms(c)
DAV:   1    -0.338600314632E+03   -0.65405E-03   -0.59068E-03  4000   0.983E-02    0.224E-02
DAV:   2    -0.338600343779E+03   -0.29148E-04   -0.16569E-04  4024   0.277E-02    0.512E-02
DAV:   3    -0.338600333763E+03    0.10016E-04   -0.31390E-05  4144   0.233E-02    0.357E-02
DAV:   4    -0.338600332612E+03    0.11510E-05   -0.19447E-05  3792   0.203E-02    0.331E-02
DAV:   5    -0.338600332619E+03   -0.74142E-08   -0.16958E-05  3952   0.175E-02    0.312E-02
DAV:   6    -0.338600327745E+03    0.48747E-05   -0.12224E-05  3280   0.140E-02    0.168E-02
DAV:   7    -0.338600326717E+03    0.10275E-05   -0.44661E-06  2528   0.850E-03    0.113E-02
DAV:   8    -0.338600326685E+03    0.32713E-07   -0.31446E-06  2464   0.702E-03
  14 F= -.33860033E+03 E0= -.33849647E+03  d E =-.666066E-03
quench:  g(F)=  0.000E+00 g(S)=  0.000E+00 dE (1.order)= 0.000E+00
 bond charge predicted
       N       E                     dE             d eps       ncg     rms          rms(c)
DAV:   1    -0.338601020844E+03   -0.69413E-03   -0.68065E-03  4000   0.105E-01    0.240E-02
DAV:   2    -0.338601052186E+03   -0.31343E-04   -0.18698E-04  4032   0.286E-02    0.524E-02
DAV:   3    -0.338601042750E+03    0.94364E-05   -0.33899E-05  4160   0.240E-02    0.380E-02
DAV:   4    -0.338601041768E+03    0.98243E-06   -0.22508E-05  3928   0.219E-02    0.356E-02
DAV:   5    -0.338601042035E+03   -0.26728E-06   -0.18303E-05  4032   0.191E-02    0.345E-02
DAV:   6    -0.338601035838E+03    0.61972E-05   -0.13802E-05  3608   0.151E-02    0.175E-02
DAV:   7    -0.338601034828E+03    0.10102E-05   -0.48837E-06  2576   0.902E-03    0.123E-02
DAV:   8    -0.338601034745E+03    0.82604E-07   -0.33564E-06  2480   0.753E-03
  15 F= -.33860103E+03 E0= -.33849719E+03  d E =-.708060E-03
quench:  g(F)=  0.000E+00 g(S)=  0.000E+00 dE (1.order)= 0.000E+00
 bond charge predicted
       N       E                     dE             d eps       ncg     rms          rms(c)
DAV:   1    -0.338601767106E+03   -0.73228E-03   -0.77639E-03  4000   0.113E-01    0.257E-02
DAV:   2    -0.338601802435E+03   -0.35328E-04   -0.21272E-04  4016   0.305E-02    0.552E-02
DAV:   3    -0.338601792387E+03    0.10048E-04   -0.37561E-05  4168   0.259E-02    0.410E-02
DAV:   4    -0.338601790720E+03    0.16665E-05   -0.25950E-05  4024   0.234E-02    0.377E-02
DAV:   5    -0.338601791304E+03   -0.58361E-06   -0.22649E-05  4088   0.203E-02    0.369E-02
DAV:   6    -0.338601784093E+03    0.72109E-05   -0.16150E-05  3680   0.161E-02    0.183E-02
DAV:   7    -0.338601782980E+03    0.11129E-05   -0.54728E-06  2696   0.945E-03    0.128E-02
DAV:   8    -0.338601782909E+03    0.71464E-07   -0.40879E-06  2496   0.799E-03
  16 F= -.33860178E+03 E0= -.33849796E+03  d E =-.748164E-03
quench:  g(F)=  0.000E+00 g(S)=  0.000E+00 dE (1.order)= 0.000E+00
 bond charge predicted
       N       E                     dE             d eps       ncg     rms          rms(c)
DAV:   1    -0.338602551269E+03   -0.76829E-03   -0.87715E-03  4000   0.120E-01    0.273E-02
DAV:   2    -0.338602591021E+03   -0.39752E-04   -0.23994E-04  4024   0.323E-02    0.588E-02
DAV:   3    -0.338602579614E+03    0.11407E-04   -0.42979E-05  4184   0.272E-02    0.434E-02
DAV:   4    -0.338602577967E+03    0.16480E-05   -0.29156E-05  4104   0.249E-02    0.401E-02
DAV:   5    -0.338602578787E+03   -0.82087E-06   -0.23640E-05  4208   0.218E-02    0.397E-02
DAV:   6    -0.338602570496E+03    0.82912E-05   -0.18121E-05  3800   0.173E-02    0.199E-02
DAV:   7    -0.338602569199E+03    0.12968E-05   -0.64033E-06  2992   0.102E-02    0.140E-02
DAV:   8    -0.338602569104E+03    0.95330E-07   -0.43950E-06  2528   0.858E-03
  17 F= -.33860257E+03 E0= -.33849877E+03  d E =-.786195E-03
quench:  g(F)=  0.000E+00 g(S)=  0.000E+00 dE (1.order)= 0.000E+00
 bond charge predicted
       N       E                     dE             d eps       ncg     rms          rms(c)
DAV:   1    -0.338603371059E+03   -0.80186E-03   -0.98290E-03  4000   0.127E-01    0.290E-02
DAV:   2    -0.338603415470E+03   -0.44411E-04   -0.26857E-04  4016   0.343E-02    0.619E-02
DAV:   3    -0.338603403137E+03    0.12334E-04   -0.47171E-05  4168   0.292E-02    0.464E-02
DAV:   4    -0.338603400741E+03    0.23960E-05   -0.32989E-05  4112   0.264E-02    0.423E-02
DAV:   5    -0.338603401839E+03   -0.10983E-05   -0.28876E-05  4216   0.229E-02    0.419E-02
DAV:   6    -0.338603392404E+03    0.94354E-05   -0.20713E-05  3832   0.182E-02    0.205E-02
DAV:   7    -0.338603391076E+03    0.13274E-05   -0.70503E-06  3160   0.106E-02    0.145E-02
DAV:   8    -0.338603390961E+03    0.11538E-06   -0.52865E-06  2632   0.903E-03
  18 F= -.33860339E+03 E0= -.33849960E+03  d E =-.821857E-03
quench:  g(F)=  0.000E+00 g(S)=  0.000E+00 dE (1.order)= 0.000E+00
 bond charge predicted
       N       E                     dE             d eps       ncg     rms          rms(c)
DAV:   1    -0.338604224140E+03   -0.83306E-03   -0.10931E-02  4000   0.133E-01    0.305E-02
DAV:   2    -0.338604273009E+03   -0.48869E-04   -0.29777E-04  4024   0.359E-02    0.651E-02
DAV:   3    -0.338604259535E+03    0.13475E-04   -0.52865E-05  4176   0.302E-02    0.487E-02
DAV:   4    -0.338604257168E+03    0.23669E-05   -0.36437E-05  4136   0.278E-02    0.446E-02
DAV:   5    -0.338604258636E+03   -0.14681E-05   -0.29658E-05  4256   0.244E-02    0.448E-02
DAV:   6    -0.338604247945E+03    0.10691E-04   -0.22869E-05  3976   0.194E-02    0.221E-02
DAV:   7    -0.338604246389E+03    0.15552E-05   -0.79897E-06  3280   0.114E-02    0.156E-02
DAV:   8    -0.338604246266E+03    0.12304E-06   -0.55917E-06  2760   0.958E-03
  19 F= -.33860425E+03 E0= -.33850049E+03  d E =-.855305E-03
quench:  g(F)=  0.000E+00 g(S)=  0.000E+00 dE (1.order)= 0.000E+00
 bond charge predicted
       N       E                     dE             d eps       ncg     rms          rms(c)
DAV:   1    -0.338605107600E+03   -0.86121E-03   -0.12077E-02  4000   0.140E-01    0.322E-02
DAV:   2    -0.338605161865E+03   -0.54265E-04   -0.32919E-04  4016   0.380E-02    0.685E-02
DAV:   3    -0.338605146903E+03    0.14962E-04   -0.57620E-05  4168   0.323E-02    0.515E-02
DAV:   4    -0.338605143980E+03    0.29224E-05   -0.40600E-05  4160   0.293E-02    0.470E-02
DAV:   5    -0.338605145463E+03   -0.14829E-05   -0.35742E-05  4256   0.255E-02    0.468E-02
DAV:   6    -0.338605133678E+03    0.11785E-04   -0.25637E-05  4000   0.203E-02    0.227E-02
DAV:   7    -0.338605132073E+03    0.16053E-05   -0.87009E-06  3376   0.118E-02    0.160E-02
DAV:   8    -0.338605131933E+03    0.14003E-06   -0.65884E-06  2856   0.100E-02
  20 F= -.33860513E+03 E0= -.33850139E+03  d E =-.885667E-03
quench:  g(F)=  0.000E+00 g(S)=  0.000E+00 dE (1.order)= 0.000E+00
 bond charge predicted
       N       E                     dE             d eps       ncg     rms          rms(c)
DAV:   1    -0.338606019390E+03   -0.88732E-03   -0.13260E-02  4000   0.147E-01    0.337E-02
DAV:   2    -0.338606078283E+03   -0.58893E-04   -0.36026E-04  4016   0.395E-02    0.715E-02
DAV:   3    -0.338606062027E+03    0.16256E-04   -0.63643E-05  4160   0.332E-02    0.535E-02
DAV:   4    -0.338606059579E+03    0.24477E-05   -0.44358E-05  4168   0.306E-02    0.495E-02
DAV:   5    -0.338606061265E+03   -0.16861E-05   -0.36284E-05  4248   0.270E-02    0.496E-02
DAV:   6    -0.338606048123E+03    0.13143E-04   -0.27895E-05  4056   0.214E-02    0.244E-02
DAV:   7    -0.338606046251E+03    0.18716E-05   -0.97425E-06  3512   0.126E-02    0.172E-02
DAV:   8    -0.338606046105E+03    0.14582E-06   -0.68640E-06  2944   0.106E-02
  21 F= -.33860605E+03 E0= -.33850233E+03  d E =-.914172E-03
quench:  g(F)=  0.000E+00 g(S)=  0.000E+00 dE (1.order)= 0.000E+00
 bond charge predicted
       N       E                     dE             d eps       ncg     rms          rms(c)
DAV:   1    -0.338606957158E+03   -0.91091E-03   -0.14481E-02  4000   0.153E-01    0.353E-02
DAV:   2    -0.338607021753E+03   -0.64595E-04   -0.39349E-04  4016   0.416E-02    0.748E-02
DAV:   3    -0.338607003858E+03    0.17895E-04   -0.68419E-05  4168   0.352E-02    0.561E-02
DAV:   4    -0.338607001062E+03    0.27951E-05   -0.48843E-05  4184   0.321E-02    0.520E-02
DAV:   5    -0.338607002558E+03   -0.14958E-05   -0.43340E-05  4240   0.281E-02    0.515E-02
DAV:   6    -0.338606988264E+03    0.14294E-04   -0.30887E-05  4072   0.223E-02    0.248E-02
DAV:   7    -0.338606986368E+03    0.18957E-05   -0.10477E-05  3616   0.129E-02    0.176E-02
DAV:   8    -0.338606986197E+03    0.17134E-06   -0.79682E-06  3008   0.110E-02
  22 F= -.33860699E+03 E0= -.33850329E+03  d E =-.940091E-03
quench:  g(F)=  0.000E+00 g(S)=  0.000E+00 dE (1.order)= 0.000E+00
 bond charge predicted
       N       E                     dE             d eps       ncg     rms          rms(c)
DAV:   1    -0.338607917801E+03   -0.93143E-03   -0.15731E-02  4000   0.160E-01    0.368E-02
DAV:   2    -0.338607987125E+03   -0.69324E-04   -0.42583E-04  4016   0.429E-02    0.776E-02
DAV:   3    -0.338607967913E+03    0.19212E-04   -0.74667E-05  4160   0.360E-02    0.579E-02
DAV:   4    -0.338607965827E+03    0.20861E-05   -0.52859E-05  4176   0.334E-02    0.546E-02
DAV:   5    -0.338607967515E+03   -0.16880E-05   -0.43550E-05  4280   0.296E-02    0.544E-02
DAV:   6    -0.338607951717E+03    0.15798E-04   -0.33272E-05  4120   0.234E-02    0.265E-02
DAV:   7    -0.338607949527E+03    0.21899E-05   -0.11591E-05  3712   0.137E-02    0.187E-02
DAV:   8    -0.338607949354E+03    0.17312E-06   -0.82121E-06  3088   0.115E-02
  23 F= -.33860795E+03 E0= -.33850429E+03  d E =-.963158E-03
quench:  g(F)=  0.000E+00 g(S)=  0.000E+00 dE (1.order)= 0.000E+00
 bond charge predicted
       N       E                     dE             d eps       ncg     rms          rms(c)
DAV:   1    -0.338608898547E+03   -0.94902E-03   -0.17011E-02  4000   0.166E-01    0.384E-02
DAV:   2    -0.338608973839E+03   -0.75292E-04   -0.46044E-04  4016   0.450E-02    0.807E-02
DAV:   3    -0.338608952900E+03    0.20940E-04   -0.79465E-05  4168   0.380E-02    0.604E-02
DAV:   4    -0.338608950444E+03    0.24558E-05   -0.57547E-05  4192   0.348E-02    0.570E-02
DAV:   5    -0.338608951891E+03   -0.14473E-05   -0.51562E-05  4240   0.306E-02    0.561E-02
DAV:   6    -0.338608934886E+03    0.17005E-04   -0.36468E-05  4104   0.242E-02    0.269E-02
DAV:   7    -0.338608932691E+03    0.21958E-05   -0.12304E-05  3752   0.140E-02    0.190E-02
DAV:   8    -0.338608932485E+03    0.20586E-06   -0.94075E-06  3120   0.119E-02
  24 F= -.33860893E+03 E0= -.33850529E+03  d E =-.983130E-03
quench:  g(F)=  0.000E+00 g(S)=  0.000E+00 dE (1.order)= 0.000E+00
 bond charge predicted
       N       E                     dE             d eps       ncg     rms          rms(c)
DAV:   1    -0.338609896513E+03   -0.96382E-03   -0.18313E-02  4000   0.172E-01    0.398E-02
DAV:   2    -0.338609976604E+03   -0.80091E-04   -0.49359E-04  4016   0.463E-02    0.834E-02
DAV:   3    -0.338609954226E+03    0.22377E-04   -0.85951E-05  4152   0.387E-02    0.620E-02
DAV:   4    -0.338609952785E+03    0.14414E-05   -0.61761E-05  4192   0.361E-02    0.596E-02
DAV:   5    -0.338609954359E+03   -0.15745E-05   -0.51332E-05  4280   0.322E-02    0.589E-02
DAV:   6    -0.338609935755E+03    0.18604E-04   -0.38926E-05  4176   0.254E-02    0.286E-02
DAV:   7    -0.338609933231E+03    0.25243E-05   -0.13512E-05  3848   0.148E-02    0.202E-02
DAV:   8    -0.338609933032E+03    0.19954E-06   -0.96502E-06  3320   0.124E-02
  25 F= -.33860993E+03 E0= -.33850633E+03  d E =-.100055E-02
quench:  g(F)=  0.000E+00 g(S)=  0.000E+00 dE (1.order)= 0.000E+00
 bond charge predicted
       N       E                     dE             d eps       ncg     rms          rms(c)
DAV:   1    -0.338610909659E+03   -0.97643E-03   -0.19638E-02  4000   0.178E-01    0.413E-02
DAV:   2    -0.338610995772E+03   -0.86113E-04   -0.52888E-04  4016   0.482E-02    0.863E-02
DAV:   3    -0.338610971595E+03    0.24177E-04   -0.90479E-05  4168   0.406E-02    0.643E-02
DAV:   4    -0.338610970032E+03    0.15636E-05   -0.66643E-05  4208   0.375E-02    0.621E-02
DAV:   5    -0.338610971184E+03   -0.11523E-05   -0.60377E-05  4248   0.332E-02    0.605E-02
DAV:   6    -0.338610951322E+03    0.19862E-04   -0.42340E-05  4136   0.261E-02    0.288E-02
DAV:   7    -0.338610948820E+03    0.25019E-05   -0.14195E-05  3888   0.151E-02    0.204E-02
DAV:   8    -0.338610948590E+03    0.22976E-06   -0.10961E-05  3464   0.128E-02    0.183E-02
DAV:   9    -0.338610946010E+03    0.25804E-05   -0.43364E-06  2528   0.854E-03    0.601E-03
DAV:  10    -0.338610945881E+03    0.12872E-06   -0.76574E-07  2144   0.299E-03
  26 F= -.33861095E+03 E0= -.33850737E+03  d E =-.101285E-02
quench:  g(F)=  0.000E+00 g(S)=  0.000E+00 dE (1.order)= 0.000E+00
 bond charge predicted
       N       E                     dE             d eps       ncg     rms          rms(c)
DAV:   1    -0.338611933819E+03   -0.98781E-03   -0.21006E-02  4000   0.184E-01    0.422E-02
DAV:   2    -0.338612020386E+03   -0.86567E-04   -0.55846E-04  4016   0.493E-02    0.844E-02
DAV:   3    -0.338612000339E+03    0.20048E-04   -0.85208E-05  4168   0.406E-02    0.671E-02
DAV:   4    -0.338611995625E+03    0.47141E-05   -0.71850E-05  4304   0.383E-02    0.616E-02
DAV:   5    -0.338611997844E+03   -0.22194E-05   -0.52648E-05  4360   0.324E-02    0.607E-02
DAV:   6    -0.338611979761E+03    0.18083E-04   -0.44878E-05  4232   0.264E-02    0.338E-02
DAV:   7    -0.338611974610E+03    0.51508E-05   -0.16851E-05  4040   0.165E-02    0.197E-02
DAV:   8    -0.338611974479E+03    0.13153E-06   -0.87138E-06  3504   0.121E-02
  27 F= -.33861197E+03 E0= -.33850842E+03  d E =-.102860E-02
quench:  g(F)=  0.000E+00 g(S)=  0.000E+00 dE (1.order)= 0.000E+00
 bond charge predicted
       N       E                     dE             d eps       ncg     rms          rms(c)
DAV:   1    -0.338612966269E+03   -0.99166E-03   -0.22337E-02  4000   0.190E-01    0.442E-02
DAV:   2    -0.338613068965E+03   -0.10270E-03   -0.61175E-04  4032   0.531E-02    0.956E-02
DAV:   3    -0.338613036103E+03    0.32863E-04   -0.11202E-04  4152   0.438E-02    0.691E-02
DAV:   4    -0.338613032913E+03    0.31900E-05   -0.73871E-05  4208   0.397E-02    0.652E-02
DAV:   5    -0.338613034273E+03   -0.13603E-05   -0.60688E-05  4272   0.345E-02    0.622E-02
DAV:   6    -0.338613014423E+03    0.19850E-04   -0.49628E-05  4184   0.281E-02    0.346E-02
DAV:   7    -0.338613010267E+03    0.41560E-05   -0.19916E-05  4096   0.172E-02    0.231E-02
DAV:   8    -0.338613009968E+03    0.29853E-06   -0.13077E-05  3816   0.140E-02    0.194E-02
DAV:   9    -0.338613006831E+03    0.31367E-05   -0.50803E-06  2856   0.950E-03    0.585E-03
DAV:  10    -0.338613006729E+03    0.10218E-06   -0.81143E-07  2136   0.312E-03
  28 F= -.33861301E+03 E0= -.33850949E+03  d E =-.103225E-02
quench:  g(F)=  0.000E+00 g(S)=  0.000E+00 dE (1.order)= 0.000E+00
 bond charge predicted
       N       E                     dE             d eps       ncg     rms          rms(c)
DAV:   1    -0.338614003857E+03   -0.99703E-03   -0.23717E-02  4000   0.195E-01    0.450E-02
DAV:   2    -0.338614102142E+03   -0.98285E-04   -0.62795E-04  4016   0.525E-02    0.908E-02
DAV:   3    -0.338614076540E+03    0.25602E-04   -0.97470E-05  4168   0.429E-02    0.695E-02
DAV:   4    -0.338614075621E+03    0.91898E-06   -0.81043E-05  4296   0.408E-02    0.681E-02
DAV:   5    -0.338614077316E+03   -0.16956E-05   -0.63903E-05  4352   0.357E-02    0.667E-02
DAV:   6    -0.338614055467E+03    0.21849E-04   -0.52980E-05  4264   0.288E-02    0.361E-02
DAV:   7    -0.338614049334E+03    0.61335E-05   -0.18539E-05  4104   0.176E-02    0.206E-02
DAV:   8    -0.338614049587E+03   -0.25309E-06   -0.10374E-05  3752   0.130E-02    0.190E-02
DAV:   9    -0.338614046690E+03    0.28973E-05   -0.47859E-06  2592   0.908E-03    0.611E-03
DAV:  10    -0.338614046572E+03    0.11767E-06   -0.89217E-07  2104   0.321E-03
  29 F= -.33861405E+03 E0= -.33851057E+03  d E =-.103984E-02
quench:  g(F)=  0.000E+00 g(S)=  0.000E+00 dE (1.order)= 0.000E+00
 bond charge predicted
       N       E                     dE             d eps       ncg     rms          rms(c)
DAV:   1    -0.338615044025E+03   -0.99733E-03   -0.25079E-02  4000   0.200E-01    0.463E-02
DAV:   2    -0.338615143006E+03   -0.98981E-04   -0.65457E-04  4008   0.527E-02    0.897E-02
DAV:   3    -0.338615121784E+03    0.21222E-04   -0.96518E-05  4160   0.437E-02    0.722E-02
DAV:   4    -0.338615118512E+03    0.32720E-05   -0.85715E-05  4296   0.420E-02    0.687E-02
DAV:   5    -0.338615121515E+03   -0.30025E-05   -0.69920E-05  4360   0.361E-02    0.682E-02
DAV:   6    -0.338615097881E+03    0.23633E-04   -0.56802E-05  4216   0.292E-02    0.361E-02
DAV:   7    -0.338615092056E+03    0.58247E-05   -0.19698E-05  4136   0.178E-02    0.211E-02
DAV:   8    -0.338615091647E+03    0.40932E-06   -0.10618E-05  3768   0.130E-02    0.173E-02
DAV:   9    -0.338615089137E+03    0.25106E-05   -0.44501E-06  2536   0.856E-03    0.523E-03
DAV:  10    -0.338615089088E+03    0.48633E-07   -0.77564E-07  2072   0.295E-03
  30 F= -.33861509E+03 E0= -.33851164E+03  d E =-.104252E-02
quench:  g(F)=  0.000E+00 g(S)=  0.000E+00 dE (1.order)= 0.000E+00
 bond charge predicted
       N       E                     dE             d eps       ncg     rms          rms(c)
DAV:   1    -0.338616083352E+03   -0.99422E-03   -0.26437E-02  4000   0.205E-01    0.475E-02
DAV:   2    -0.338616186646E+03   -0.10329E-03   -0.68734E-04  4016   0.539E-02    0.917E-02
DAV:   3    -0.338616164358E+03    0.22287E-04   -0.10289E-04  4168   0.443E-02    0.736E-02
DAV:   4    -0.338616162182E+03    0.21762E-05   -0.90404E-05  4296   0.431E-02    0.710E-02
DAV:   5    -0.338616165220E+03   -0.30375E-05   -0.68559E-05  4392   0.374E-02    0.706E-02
DAV:   6    -0.338616139554E+03    0.25666E-04   -0.57359E-05  4288   0.301E-02    0.368E-02
DAV:   7    -0.338616133804E+03    0.57495E-05   -0.20424E-05  4192   0.182E-02    0.222E-02
DAV:   8    -0.338616133711E+03    0.92929E-07   -0.11551E-05  3888   0.138E-02    0.195E-02
DAV:   9    -0.338616130627E+03    0.30841E-05   -0.50860E-06  2664   0.936E-03    0.617E-03
DAV:  10    -0.338616130519E+03    0.10851E-06   -0.94122E-07  2104   0.331E-03
  31 F= -.33861613E+03 E0= -.33851271E+03  d E =-.104143E-02
quench:  g(F)=  0.000E+00 g(S)=  0.000E+00 dE (1.order)= 0.000E+00
 bond charge predicted
       N       E                     dE             d eps       ncg     rms          rms(c)
DAV:   1    -0.338617118994E+03   -0.98837E-03   -0.27786E-02  4000   0.210E-01    0.488E-02
DAV:   2    -0.338617227541E+03   -0.10855E-03   -0.71941E-04  4016   0.554E-02    0.941E-02
DAV:   3    -0.338617204464E+03    0.23076E-04   -0.10645E-04  4160   0.459E-02    0.760E-02
DAV:   4    -0.338617200827E+03    0.36370E-05   -0.94652E-05  4296   0.442E-02    0.722E-02
DAV:   5    -0.338617204464E+03   -0.36364E-05   -0.77283E-05  4360   0.380E-02    0.720E-02
DAV:   6    -0.338617177984E+03    0.26480E-04   -0.63150E-05  4232   0.309E-02    0.379E-02
DAV:   7    -0.338617171641E+03    0.63429E-05   -0.22043E-05  4168   0.188E-02    0.224E-02
DAV:   8    -0.338617171172E+03    0.46917E-06   -0.11977E-05  3896   0.138E-02    0.184E-02
DAV:   9    -0.338617168345E+03    0.28269E-05   -0.50298E-06  2664   0.907E-03    0.554E-03
DAV:  10    -0.338617168287E+03    0.58026E-07   -0.85202E-07  2080   0.313E-03
  32 F= -.33861717E+03 E0= -.33851378E+03  d E =-.103777E-02
quench:  g(F)=  0.000E+00 g(S)=  0.000E+00 dE (1.order)= 0.000E+00
 bond charge predicted
       N       E                     dE             d eps       ncg     rms          rms(c)
DAV:   1    -0.338618148474E+03   -0.98013E-03   -0.29122E-02  4000   0.215E-01    0.499E-02
DAV:   2    -0.338618260836E+03   -0.11236E-03   -0.75077E-04  4016   0.564E-02    0.957E-02
DAV:   3    -0.338618236512E+03    0.24324E-04   -0.11208E-04  4168   0.463E-02    0.768E-02
DAV:   4    -0.338618235419E+03    0.10926E-05   -0.99746E-05  4296   0.453E-02    0.753E-02
DAV:   5    -0.338618238386E+03   -0.29666E-05   -0.76341E-05  4384   0.395E-02    0.744E-02
DAV:   6    -0.338618209782E+03    0.28603E-04   -0.63638E-05  4280   0.317E-02    0.386E-02
DAV:   7    -0.338618203456E+03    0.63267E-05   -0.22647E-05  4192   0.192E-02    0.233E-02
DAV:   8    -0.338618203305E+03    0.15055E-06   -0.12722E-05  3936   0.145E-02    0.205E-02
DAV:   9    -0.338618199938E+03    0.33677E-05   -0.56048E-06  2768   0.979E-03    0.649E-03
DAV:  10    -0.338618199813E+03    0.12467E-06   -0.10235E-06  2120   0.348E-03
  33 F= -.33861820E+03 E0= -.33851484E+03  d E =-.103153E-02
quench:  g(F)=  0.000E+00 g(S)=  0.000E+00 dE (1.order)= 0.000E+00
 bond charge predicted
       N       E                     dE             d eps       ncg     rms          rms(c)
DAV:   1    -0.338619168562E+03   -0.96862E-03   -0.30438E-02  4000   0.219E-01    0.512E-02
DAV:   2    -0.338619285583E+03   -0.11702E-03   -0.78102E-04  4016   0.577E-02    0.976E-02
DAV:   3    -0.338619260748E+03    0.24834E-04   -0.11466E-04  4160   0.477E-02    0.788E-02
DAV:   4    -0.338619258597E+03    0.21515E-05   -0.10394E-04  4296   0.463E-02    0.766E-02
DAV:   5    -0.338619261898E+03   -0.33008E-05   -0.85871E-05  4360   0.401E-02    0.757E-02
DAV:   6    -0.338619232532E+03    0.29365E-04   -0.69714E-05  4240   0.324E-02    0.396E-02
DAV:   7    -0.338619225619E+03    0.69132E-05   -0.24271E-05  4208   0.197E-02    0.234E-02
DAV:   8    -0.338619225033E+03    0.58623E-06   -0.13042E-05  3944   0.144E-02    0.191E-02
DAV:   9    -0.338619221995E+03    0.30374E-05   -0.54528E-06  2736   0.941E-03    0.579E-03
DAV:  10    -0.338619221931E+03    0.64145E-07   -0.92017E-07  2096   0.327E-03
  34 F= -.33861922E+03 E0= -.33851590E+03  d E =-.102212E-02
quench:  g(F)=  0.000E+00 g(S)=  0.000E+00 dE (1.order)= 0.000E+00
 bond charge predicted
       N       E                     dE             d eps       ncg     rms          rms(c)
DAV:   1    -0.338620175986E+03   -0.95399E-03   -0.31730E-02  4000   0.224E-01    0.522E-02
DAV:   2    -0.338620296266E+03   -0.12028E-03   -0.81028E-04  4016   0.585E-02    0.989E-02
DAV:   3    -0.338620270372E+03    0.25894E-04   -0.11979E-04  4168   0.480E-02    0.793E-02
DAV:   4    -0.338620271224E+03   -0.85211E-06   -0.10904E-04  4296   0.473E-02    0.796E-02
DAV:   5    -0.338620273605E+03   -0.23808E-05   -0.84190E-05  4384   0.415E-02    0.780E-02
DAV:   6    -0.338620242101E+03    0.31504E-04   -0.69669E-05  4280   0.332E-02    0.402E-02
DAV:   7    -0.338620235268E+03    0.68332E-05   -0.24779E-05  4224   0.201E-02    0.243E-02
DAV:   8    -0.338620235004E+03    0.26366E-06   -0.13733E-05  3960   0.151E-02    0.211E-02
DAV:   9    -0.338620231419E+03    0.35855E-05   -0.60319E-06  2904   0.101E-02    0.674E-03
DAV:  10    -0.338620231282E+03    0.13708E-06   -0.10846E-06  2136   0.361E-03
  35 F= -.33862023E+03 E0= -.33851694E+03  d E =-.100935E-02
quench:  g(F)=  0.000E+00 g(S)=  0.000E+00 dE (1.order)= 0.000E+00
 bond charge predicted
       N       E                     dE             d eps       ncg     rms          rms(c)
DAV:   1    -0.338621168529E+03   -0.93711E-03   -0.32991E-02  4000   0.228E-01    0.533E-02
DAV:   2    -0.338621292968E+03   -0.12444E-03   -0.83809E-04  4016   0.597E-02    0.101E-01
DAV:   3    -0.338621266730E+03    0.26238E-04   -0.12171E-04  4160   0.492E-02    0.812E-02
DAV:   4    -0.338621266681E+03    0.48618E-07   -0.11283E-04  4296   0.482E-02    0.808E-02
DAV:   5    -0.338621269302E+03   -0.26212E-05   -0.94352E-05  4360   0.420E-02    0.791E-02
DAV:   6    -0.338621237125E+03    0.32177E-04   -0.75968E-05  4240   0.338E-02    0.411E-02
DAV:   7    -0.338621229722E+03    0.74032E-05   -0.26375E-05  4224   0.206E-02    0.243E-02
DAV:   8    -0.338621228982E+03    0.74034E-06   -0.14006E-05  3984   0.149E-02    0.197E-02
DAV:   9    -0.338621225776E+03    0.32054E-05   -0.58198E-06  2824   0.969E-03    0.601E-03
DAV:  10    -0.338621225704E+03    0.72403E-07   -0.97659E-07  2112   0.339E-03
  36 F= -.33862123E+03 E0= -.33851797E+03  d E =-.994422E-03
quench:  g(F)=  0.000E+00 g(S)=  0.000E+00 dE (1.order)= 0.000E+00
 bond charge predicted
       N       E                     dE             d eps       ncg     rms          rms(c)
DAV:   1    -0.338622143885E+03   -0.91811E-03   -0.34217E-02  4000   0.232E-01    0.542E-02
DAV:   2    -0.338622271024E+03   -0.12714E-03   -0.86451E-04  4016   0.603E-02    0.102E-01
DAV:   3    -0.338622243777E+03    0.27247E-04   -0.12632E-04  4168   0.494E-02    0.814E-02
DAV:   4    -0.338622247178E+03   -0.34006E-05   -0.11783E-04  4296   0.492E-02    0.838E-02
DAV:   5    -0.338622248677E+03   -0.14991E-05   -0.91930E-05  4392   0.434E-02    0.813E-02
DAV:   6    -0.338622214375E+03    0.34301E-04   -0.75381E-05  4296   0.345E-02    0.416E-02
DAV:   7    -0.338622207097E+03    0.72786E-05   -0.26769E-05  4240   0.209E-02    0.252E-02
DAV:   8    -0.338622206697E+03    0.39968E-06   -0.14613E-05  4000   0.156E-02    0.217E-02
DAV:   9    -0.338622202942E+03    0.37550E-05   -0.63616E-06  2952   0.104E-02    0.695E-03
DAV:  10    -0.338622202797E+03    0.14480E-06   -0.11476E-06  2144   0.372E-03
  37 F= -.33862220E+03 E0= -.33851898E+03  d E =-.977093E-03
quench:  g(F)=  0.000E+00 g(S)=  0.000E+00 dE (1.order)= 0.000E+00
 bond charge predicted
       N       E                     dE             d eps       ncg     rms          rms(c)
DAV:   1    -0.338623099384E+03   -0.89644E-03   -0.35403E-02  4000   0.235E-01    0.552E-02
DAV:   2    -0.338623229975E+03   -0.13059E-03   -0.88916E-04  4008   0.613E-02    0.103E-01
DAV:   3    -0.338623202703E+03    0.27272E-04   -0.12744E-04  4160   0.505E-02    0.830E-02
DAV:   4    -0.338623205286E+03   -0.25827E-05   -0.12111E-04  4296   0.500E-02    0.848E-02
DAV:   5    -0.338623206897E+03   -0.16110E-05   -0.10246E-04  4368   0.437E-02    0.821E-02
DAV:   6    -0.338623172084E+03    0.34813E-04   -0.81671E-05  4240   0.351E-02    0.423E-02
DAV:   7    -0.338623164279E+03    0.78054E-05   -0.28289E-05  4232   0.213E-02    0.252E-02
DAV:   8    -0.338623163363E+03    0.91586E-06   -0.14777E-05  3992   0.154E-02    0.200E-02
DAV:   9    -0.338623160043E+03    0.33197E-05   -0.60769E-06  2872   0.989E-03    0.617E-03
DAV:  10    -0.338623159971E+03    0.72214E-07   -0.10263E-06  2120   0.348E-03
  38 F= -.33862316E+03 E0= -.33851997E+03  d E =-.957174E-03
quench:  g(F)=  0.000E+00 g(S)=  0.000E+00 dE (1.order)= 0.000E+00
 bond charge predicted
       N       E                     dE             d eps       ncg     rms          rms(c)
DAV:   1    -0.338624033964E+03   -0.87392E-03   -0.36543E-02  4000   0.239E-01    0.560E-02
DAV:   2    -0.338624166543E+03   -0.13258E-03   -0.91227E-04  4016   0.618E-02    0.103E-01
DAV:   3    -0.338624138481E+03    0.28062E-04   -0.13144E-04  4168   0.505E-02    0.829E-02
DAV:   4    -0.338624144916E+03   -0.64346E-05   -0.12597E-04  4296   0.508E-02    0.877E-02
DAV:   5    -0.338624145113E+03   -0.19740E-06   -0.99134E-05  4400   0.451E-02    0.841E-02
DAV:   6    -0.338624108255E+03    0.36858E-04   -0.80378E-05  4296   0.356E-02    0.426E-02
DAV:   7    -0.338624100651E+03    0.76040E-05   -0.28542E-05  4248   0.216E-02    0.260E-02
DAV:   8    -0.338624100080E+03    0.57113E-06   -0.15319E-05  4032   0.160E-02    0.220E-02
DAV:   9    -0.338624096217E+03    0.38625E-05   -0.65917E-06  2992   0.105E-02    0.709E-03
DAV:  10    -0.338624096068E+03    0.14977E-06   -0.11954E-06  2176   0.381E-03
  39 F= -.33862410E+03 E0= -.33852094E+03  d E =-.936096E-03
quench:  g(F)=  0.000E+00 g(S)=  0.000E+00 dE (1.order)= 0.000E+00
 bond charge predicted
       N       E                     dE             d eps       ncg     rms          rms(c)
DAV:   1    -0.338624945259E+03   -0.84904E-03   -0.37631E-02  4000   0.242E-01    0.568E-02
DAV:   2    -0.338625080606E+03   -0.13535E-03   -0.93390E-04  4008   0.625E-02    0.104E-01
DAV:   3    -0.338625052840E+03    0.27766E-04   -0.13177E-04  4168   0.515E-02    0.843E-02
DAV:   4    -0.338625058581E+03   -0.57410E-05   -0.12879E-04  4296   0.516E-02    0.886E-02
DAV:   5    -0.338625058671E+03   -0.89589E-07   -0.11008E-04  4368   0.453E-02    0.847E-02
DAV:   6    -0.338625021497E+03    0.37173E-04   -0.86572E-05  4240   0.361E-02    0.432E-02
DAV:   7    -0.338625013427E+03    0.80703E-05   -0.29934E-05  4240   0.219E-02    0.258E-02
DAV:   8    -0.338625012307E+03    0.11201E-05   -0.15370E-05  4016   0.157E-02    0.202E-02
DAV:   9    -0.338625008936E+03    0.33713E-05   -0.62412E-06  2920   0.100E-02    0.629E-03
DAV:  10    -0.338625008864E+03    0.71515E-07   -0.10651E-06  2120   0.355E-03
  40 F= -.33862501E+03 E0= -.33852188E+03  d E =-.912797E-03
quench:  g(F)=  0.000E+00 g(S)=  0.000E+00 dE (1.order)= 0.000E+00
 bond charge predicted
       N       E                     dE             d eps       ncg     rms          rms(c)
DAV:   1    -0.338625831752E+03   -0.82282E-03   -0.38659E-02  4000   0.245E-01    0.575E-02
DAV:   2    -0.338625968442E+03   -0.13669E-03   -0.95563E-04  4008   0.628E-02    0.104E-01
DAV:   3    -0.338625940359E+03    0.28083E-04   -0.13539E-04  4176   0.514E-02    0.841E-02
DAV:   4    -0.338625950421E+03   -0.10063E-04   -0.13412E-04  4296   0.524E-02    0.916E-02
DAV:   5    -0.338625948539E+03    0.18816E-05   -0.10599E-04  4408   0.466E-02    0.864E-02
DAV:   6    -0.338625909430E+03    0.39109E-04   -0.84459E-05  4288   0.366E-02    0.433E-02
DAV:   7    -0.338625901692E+03    0.77383E-05   -0.30002E-05  4248   0.221E-02    0.266E-02
DAV:   8    -0.338625900886E+03    0.80653E-06   -0.15802E-05  4032   0.162E-02    0.221E-02
DAV:   9    -0.338625897003E+03    0.38830E-05   -0.66948E-06  2992   0.106E-02    0.718E-03
DAV:  10    -0.338625896856E+03    0.14689E-06   -0.12374E-06  2168   0.388E-03
  41 F= -.33862590E+03 E0= -.33852280E+03  d E =-.887992E-03
quench:  g(F)=  0.000E+00 g(S)=  0.000E+00 dE (1.order)= 0.000E+00
 bond charge predicted
       N       E                     dE             d eps       ncg     rms          rms(c)
DAV:   1    -0.338626692629E+03   -0.79563E-03   -0.39629E-02  4000   0.247E-01    0.583E-02
DAV:   2    -0.338626831158E+03   -0.13853E-03   -0.97385E-04  4008   0.633E-02    0.105E-01
DAV:   3    -0.338626804056E+03    0.27102E-04   -0.13546E-04  4168   0.524E-02    0.853E-02
DAV:   4    -0.338626813439E+03   -0.93828E-05   -0.13677E-04  4304   0.531E-02    0.925E-02
DAV:   5    -0.338626811071E+03    0.23680E-05   -0.11737E-04  4384   0.468E-02    0.867E-02
DAV:   6    -0.338626771886E+03    0.39185E-04   -0.90389E-05  4240   0.369E-02    0.437E-02
DAV:   7    -0.338626763783E+03    0.81025E-05   -0.31215E-05  4224   0.224E-02    0.264E-02
DAV:   8    -0.338626762385E+03    0.13982E-05   -0.15727E-05  4024   0.160E-02    0.202E-02
DAV:   9    -0.338626759046E+03    0.33390E-05   -0.62795E-06  2928   0.100E-02    0.636E-03
DAV:  10    -0.338626758982E+03    0.64123E-07   -0.10997E-06  2120   0.361E-03
  42 F= -.33862676E+03 E0= -.33852370E+03  d E =-.862126E-03
quench:  g(F)=  0.000E+00 g(S)=  0.000E+00 dE (1.order)= 0.000E+00
 bond charge predicted
       N       E                     dE             d eps       ncg     rms          rms(c)
DAV:   1    -0.338627527165E+03   -0.76812E-03   -0.40538E-02  4000   0.249E-01    0.586E-02
DAV:   2    -0.338627665417E+03   -0.13825E-03   -0.98341E-04  4008   0.633E-02    0.104E-01
DAV:   3    -0.338627637844E+03    0.27573E-04   -0.13769E-04  4176   0.520E-02    0.846E-02
DAV:   4    -0.338627651901E+03   -0.14057E-04   -0.14073E-04  4304   0.536E-02    0.950E-02
DAV:   5    -0.338627647537E+03    0.43643E-05   -0.11165E-04  4408   0.479E-02    0.880E-02
DAV:   6    -0.338627606710E+03    0.40827E-04   -0.87331E-05  4288   0.372E-02    0.436E-02
DAV:   7    -0.338627599042E+03    0.76675E-05   -0.31179E-05  4248   0.225E-02    0.271E-02
DAV:   8    -0.338627597954E+03    0.10884E-05   -0.16037E-05  4032   0.164E-02    0.219E-02
DAV:   9    -0.338627594130E+03    0.38232E-05   -0.66650E-06  2992   0.106E-02    0.718E-03
DAV:  10    -0.338627593995E+03    0.13513E-06   -0.12559E-06  2184   0.391E-03
  43 F= -.33862759E+03 E0= -.33852457E+03  d E =-.835013E-03
quench:  g(F)=  0.000E+00 g(S)=  0.000E+00 dE (1.order)= 0.000E+00
 bond charge predicted
       N       E                     dE             d eps       ncg     rms          rms(c)
DAV:   1    -0.338628335177E+03   -0.74105E-03   -0.41379E-02  4000   0.251E-01    0.591E-02
DAV:   2    -0.338628473856E+03   -0.13868E-03   -0.99090E-04  4008   0.636E-02    0.104E-01
DAV:   3    -0.338628446891E+03    0.26965E-04   -0.13582E-04  4168   0.527E-02    0.850E-02
DAV:   4    -0.338628460807E+03   -0.13916E-04   -0.14110E-04  4312   0.540E-02    0.955E-02
DAV:   5    -0.338628456010E+03    0.47965E-05   -0.12267E-04  4384   0.479E-02    0.880E-02
DAV:   6    -0.338628415389E+03    0.40622E-04   -0.92852E-05  4248   0.374E-02    0.439E-02
DAV:   7    -0.338628407410E+03    0.79782E-05   -0.32151E-05  4256   0.227E-02    0.268E-02
DAV:   8    -0.338628405786E+03    0.16246E-05   -0.15847E-05  4032   0.161E-02    0.200E-02
DAV:   9    -0.338628402515E+03    0.32706E-05   -0.62114E-06  2912   0.994E-03    0.638E-03
DAV:  10    -0.338628402458E+03    0.57291E-07   -0.11160E-06  2120   0.364E-03
  44 F= -.33862840E+03 E0= -.33852540E+03  d E =-.808463E-03
quench:  g(F)=  0.000E+00 g(S)=  0.000E+00 dE (1.order)= 0.000E+00
 bond charge predicted
       N       E                     dE             d eps       ncg     rms          rms(c)
DAV:   1    -0.338629116333E+03   -0.71382E-03   -0.42146E-02  4000   0.253E-01    0.593E-02
DAV:   2    -0.338629253871E+03   -0.13754E-03   -0.99605E-04  4008   0.634E-02    0.103E-01
DAV:   3    -0.338629226680E+03    0.27191E-04   -0.13686E-04  4176   0.520E-02    0.838E-02
DAV:   4    -0.338629245759E+03   -0.19079E-04   -0.14475E-04  4304   0.543E-02    0.980E-02
DAV:   5    -0.338629238449E+03    0.73098E-05   -0.11603E-04  4416   0.489E-02    0.889E-02
DAV:   6    -0.338629196499E+03    0.41950E-04   -0.88961E-05  4304   0.376E-02    0.436E-02
DAV:   7    -0.338629189038E+03    0.74613E-05   -0.31920E-05  4264   0.227E-02    0.273E-02
DAV:   8    -0.338629187686E+03    0.13523E-05   -0.15942E-05  4024   0.164E-02    0.215E-02
DAV:   9    -0.338629184004E+03    0.36813E-05   -0.64639E-06  2960   0.104E-02    0.710E-03
DAV:  10    -0.338629183883E+03    0.12080E-06   -0.12479E-06  2192   0.390E-03
  45 F= -.33862918E+03 E0= -.33852622E+03  d E =-.781425E-03
quench:  g(F)=  0.000E+00 g(S)=  0.000E+00 dE (1.order)= 0.000E+00
 bond charge predicted
       N       E                     dE             d eps       ncg     rms          rms(c)
DAV:   1    -0.338629871045E+03   -0.68704E-03   -0.42842E-02  4000   0.254E-01    0.595E-02
DAV:   2    -0.338630008038E+03   -0.13699E-03   -0.99862E-04  4008   0.634E-02    0.103E-01
DAV:   3    -0.338629981810E+03    0.26228E-04   -0.13423E-04  4168   0.525E-02    0.839E-02
DAV:   4    -0.338630000760E+03   -0.18950E-04   -0.14397E-04  4312   0.545E-02    0.982E-02
DAV:   5    -0.338629992943E+03    0.78174E-05   -0.12689E-04  4384   0.487E-02    0.886E-02
DAV:   6    -0.338629951447E+03    0.41495E-04   -0.93866E-05  4248   0.376E-02    0.435E-02
DAV:   7    -0.338629943779E+03    0.76680E-05   -0.32546E-05  4248   0.228E-02    0.269E-02
DAV:   8    -0.338629941912E+03    0.18669E-05   -0.15590E-05  4024   0.161E-02    0.196E-02
DAV:   9    -0.338629938803E+03    0.31097E-05   -0.59447E-06  2824   0.974E-03    0.631E-03
DAV:  10    -0.338629938760E+03    0.42623E-07   -0.11146E-06  2120   0.362E-03
  46 F= -.33862994E+03 E0= -.33852700E+03  d E =-.754877E-03
quench:  g(F)=  0.000E+00 g(S)=  0.000E+00 dE (1.order)= 0.000E+00
 bond charge predicted
       N       E                     dE             d eps       ncg     rms          rms(c)
DAV:   1    -0.338630600696E+03   -0.66189E-03   -0.43463E-02  4000   0.255E-01    0.594E-02
DAV:   2    -0.338630735439E+03   -0.13474E-03   -0.99756E-04  4008   0.629E-02    0.101E-01
DAV:   3    -0.338630709299E+03    0.26140E-04   -0.13405E-04  4192   0.517E-02    0.823E-02
DAV:   4    -0.338630733660E+03   -0.24361E-04   -0.14714E-04  4320   0.547E-02    0.101E-01
DAV:   5    -0.338630722884E+03    0.10776E-04   -0.11911E-04  4424   0.495E-02    0.891E-02
DAV:   6    -0.338630680496E+03    0.42388E-04   -0.89064E-05  4312   0.376E-02    0.430E-02
DAV:   7    -0.338630673473E+03    0.70233E-05   -0.32158E-05  4296   0.228E-02    0.273E-02
DAV:   8    -0.338630671815E+03    0.16583E-05   -0.15476E-05  4016   0.163E-02    0.208E-02
DAV:   9    -0.338630668385E+03    0.34296E-05   -0.60599E-06  2872   0.101E-02    0.691E-03
DAV:  10    -0.338630668287E+03    0.98051E-07   -0.12170E-06  2168   0.383E-03
  47 F= -.33863067E+03 E0= -.33852776E+03  d E =-.729527E-03
quench:  g(F)=  0.000E+00 g(S)=  0.000E+00 dE (1.order)= 0.000E+00
 bond charge predicted
       N       E                     dE             d eps       ncg     rms          rms(c)
DAV:   1    -0.338631306007E+03   -0.63762E-03   -0.44014E-02  4000   0.255E-01    0.594E-02
DAV:   2    -0.338631439107E+03   -0.13310E-03   -0.99396E-04  4008   0.626E-02    0.100E-01
DAV:   3    -0.338631414119E+03    0.24988E-04   -0.13047E-04  4176   0.520E-02    0.820E-02
DAV:   4    -0.338631438682E+03   -0.24563E-04   -0.14499E-04  4320   0.547E-02    0.101E-01
DAV:   5    -0.338631427118E+03    0.11565E-04   -0.12970E-04  4392   0.493E-02    0.885E-02
DAV:   6    -0.338631385461E+03    0.41657E-04   -0.93222E-05  4240   0.375E-02    0.427E-02
DAV:   7    -0.338631378377E+03    0.70834E-05   -0.32482E-05  4232   0.228E-02    0.268E-02
DAV:   8    -0.338631376239E+03    0.21387E-05   -0.15010E-05  3984   0.159E-02    0.189E-02
DAV:   9    -0.338631373369E+03    0.28695E-05   -0.55210E-06  2736   0.939E-03    0.616E-03
DAV:  10    -0.338631373347E+03    0.22541E-07   -0.10889E-06  2144   0.356E-03
  48 F= -.33863137E+03 E0= -.33852849E+03  d E =-.705060E-03
quench:  g(F)=  0.000E+00 g(S)=  0.000E+00 dE (1.order)= 0.000E+00
 bond charge predicted
       N       E                     dE             d eps       ncg     rms          rms(c)
DAV:   1    -0.338631988641E+03   -0.61527E-03   -0.44499E-02  4000   0.256E-01    0.592E-02
DAV:   2    -0.338632118504E+03   -0.12986E-03   -0.98689E-04  4008   0.618E-02    0.985E-02
DAV:   3    -0.338632093877E+03    0.24627E-04   -0.12921E-04  4192   0.510E-02    0.800E-02
DAV:   4    -0.338632123976E+03   -0.30099E-04   -0.14770E-04  4352   0.547E-02    0.103E-01
DAV:   5    -0.338632109057E+03    0.14918E-04   -0.12082E-04  4456   0.499E-02    0.884E-02
DAV:   6    -0.338632066979E+03    0.42078E-04   -0.87667E-05  4344   0.373E-02    0.419E-02
DAV:   7    -0.338632060633E+03    0.63456E-05   -0.31949E-05  4280   0.226E-02    0.272E-02
DAV:   8    -0.338632058640E+03    0.19940E-05   -0.14730E-05  3984   0.160E-02    0.198E-02
DAV:   9    -0.338632055538E+03    0.31011E-05   -0.54993E-06  2752   0.963E-03    0.661E-03
DAV:  10    -0.338632055472E+03    0.66560E-07   -0.11606E-06  2160   0.372E-03
  49 F= -.33863206E+03 E0= -.33852921E+03  d E =-.682125E-03
quench:  g(F)=  0.000E+00 g(S)=  0.000E+00 dE (1.order)= 0.000E+00
 bond charge predicted
       N       E                     dE             d eps       ncg     rms          rms(c)
DAV:   1    -0.338632650101E+03   -0.59456E-03   -0.44924E-02  4000   0.256E-01    0.590E-02
DAV:   2    -0.338632777419E+03   -0.12732E-03   -0.97784E-04  4008   0.612E-02    0.969E-02
DAV:   3    -0.338632753697E+03    0.23722E-04   -0.12463E-04  4192   0.510E-02    0.790E-02
DAV:   4    -0.338632785181E+03   -0.31484E-04   -0.14434E-04  4360   0.546E-02    0.103E-01
DAV:   5    -0.338632768865E+03    0.16315E-04   -0.13155E-04  4448   0.496E-02    0.877E-02
DAV:   6    -0.338632727620E+03    0.41245E-04   -0.91152E-05  4288   0.371E-02    0.414E-02
DAV:   7    -0.338632721303E+03    0.63170E-05   -0.31961E-05  4272   0.225E-02    0.266E-02
DAV:   8    -0.338632718873E+03    0.24302E-05   -0.14166E-05  3968   0.155E-02    0.179E-02
DAV:   9    -0.338632716303E+03    0.25701E-05   -0.49625E-06  2608   0.893E-03    0.593E-03
DAV:  10    -0.338632716305E+03   -0.16953E-08   -0.10455E-06  2144   0.346E-03
  50 F= -.33863272E+03 E0= -.33852989E+03  d E =-.660833E-03
quench:  g(F)=  0.000E+00 g(S)=  0.000E+00 dE (1.order)= 0.000E+00
 bond charge predicted
       N       E                     dE             d eps       ncg     rms          rms(c)
DAV:   1    -0.338633292936E+03   -0.57663E-03   -0.45301E-02  4000   0.255E-01    0.585E-02
DAV:   2    -0.338633416267E+03   -0.12333E-03   -0.96581E-04  4008   0.602E-02    0.946E-02
DAV:   3    -0.338633393301E+03    0.22966E-04   -0.12264E-04  4200   0.499E-02    0.769E-02
DAV:   4    -0.338633429996E+03   -0.36694E-04   -0.14673E-04  4360   0.544E-02    0.105E-01
DAV:   5    -0.338633410012E+03    0.19984E-04   -0.12136E-04  4456   0.500E-02    0.870E-02
DAV:   6    -0.338633368885E+03    0.41127E-04   -0.84834E-05  4368   0.367E-02    0.404E-02
DAV:   7    -0.338633363364E+03    0.55205E-05   -0.31383E-05  4264   0.223E-02    0.269E-02
DAV:   8    -0.338633361017E+03    0.23478E-05   -0.13762E-05  3936   0.156E-02    0.185E-02
DAV:   9    -0.338633358295E+03    0.27216E-05   -0.48433E-06  2632   0.906E-03    0.621E-03
DAV:  10    -0.338633358268E+03    0.27067E-07   -0.10795E-06  2144   0.357E-03
  51 F= -.33863336E+03 E0= -.33853056E+03  d E =-.641963E-03
quench:  g(F)=  0.000E+00 g(S)=  0.000E+00 dE (1.order)= 0.000E+00
 bond charge predicted
       N       E                     dE             d eps       ncg     rms          rms(c)
DAV:   1    -0.338633919502E+03   -0.56121E-03   -0.45631E-02  4000   0.255E-01    0.581E-02
DAV:   2    -0.338634039739E+03   -0.12024E-03   -0.95289E-04  4008   0.594E-02    0.927E-02
DAV:   3    -0.338634016805E+03    0.22934E-04   -0.11700E-04  4200   0.496E-02    0.746E-02
DAV:   4    -0.338634057640E+03   -0.40836E-04   -0.14235E-04  4360   0.542E-02    0.106E-01
DAV:   5    -0.338634034800E+03    0.22840E-04   -0.13321E-04  4448   0.500E-02    0.865E-02
DAV:   6    -0.338633994231E+03    0.40569E-04   -0.87855E-05  4280   0.365E-02    0.397E-02
DAV:   7    -0.338633988851E+03    0.53796E-05   -0.31070E-05  4272   0.222E-02    0.263E-02
DAV:   8    -0.338633986128E+03    0.27235E-05   -0.13153E-05  3920   0.151E-02    0.168E-02
DAV:   9    -0.338633983886E+03    0.22415E-05   -0.43488E-06  2488   0.839E-03    0.570E-03
DAV:  10    -0.338633983910E+03   -0.23509E-07   -0.99491E-07  2144   0.336E-03
  52 F= -.33863398E+03 E0= -.33853121E+03  d E =-.625642E-03
quench:  g(F)=  0.000E+00 g(S)=  0.000E+00 dE (1.order)= 0.000E+00
 bond charge predicted
       N       E                     dE             d eps       ncg     rms          rms(c)
DAV:   1    -0.338634531936E+03   -0.54805E-03   -0.45957E-02  4000   0.254E-01    0.577E-02
DAV:   2    -0.338634648019E+03   -0.11608E-03   -0.93833E-04  4008   0.583E-02    0.903E-02
DAV:   3    -0.338634627264E+03    0.20755E-04   -0.11609E-04  4192   0.487E-02    0.738E-02
DAV:   4    -0.338634668991E+03   -0.41727E-04   -0.14435E-04  4352   0.539E-02    0.106E-01
DAV:   5    -0.338634644562E+03    0.24430E-04   -0.12047E-04  4472   0.498E-02    0.850E-02
DAV:   6    -0.338634604804E+03    0.39758E-04   -0.81413E-05  4352   0.358E-02    0.386E-02
DAV:   7    -0.338634600234E+03    0.45699E-05   -0.30694E-05  4264   0.218E-02    0.265E-02
DAV:   8    -0.338634597538E+03    0.26964E-05   -0.12798E-05  3912   0.151E-02    0.172E-02
DAV:   9    -0.338634595179E+03    0.23585E-05   -0.41791E-06  2472   0.845E-03    0.570E-03
DAV:  10    -0.338634595200E+03   -0.20533E-07   -0.99837E-07  2120   0.341E-03
  53 F= -.33863460E+03 E0= -.33853185E+03  d E =-.611290E-03
quench:  g(F)=  0.000E+00 g(S)=  0.000E+00 dE (1.order)= 0.000E+00
 bond charge predicted
       N       E                     dE             d eps       ncg     rms          rms(c)
DAV:   1    -0.338635132015E+03   -0.53684E-03   -0.46186E-02  4000   0.253E-01    0.570E-02
DAV:   2    -0.338635244593E+03   -0.11258E-03   -0.92420E-04  4000   0.574E-02    0.880E-02
DAV:   3    -0.338635219853E+03    0.24740E-04   -0.10647E-04  4192   0.474E-02    0.669E-02
DAV:   4    -0.338635278694E+03   -0.58841E-04   -0.14026E-04  4376   0.538E-02    0.112E-01
DAV:   5    -0.338635243520E+03    0.35174E-04   -0.13829E-04  4456   0.512E-02    0.855E-02
DAV:   6    -0.338635203504E+03    0.40016E-04   -0.84291E-05  4304   0.358E-02    0.378E-02
DAV:   7    -0.338635199143E+03    0.43614E-05   -0.30154E-05  4264   0.218E-02    0.259E-02
DAV:   8    -0.338635196074E+03    0.30688E-05   -0.12115E-05  3872   0.147E-02    0.157E-02
DAV:   9    -0.338635194170E+03    0.19037E-05   -0.37592E-06  2440   0.781E-03    0.554E-03
DAV:  10    -0.338635194207E+03   -0.36649E-07   -0.93688E-07  2104   0.329E-03
  54 F= -.33863519E+03 E0= -.33853247E+03  d E =-.599007E-03
quench:  g(F)=  0.000E+00 g(S)=  0.000E+00 dE (1.order)= 0.000E+00
 bond charge predicted
       N       E                     dE             d eps       ncg     rms          rms(c)
DAV:   1    -0.338635716740E+03   -0.52257E-03   -0.46329E-02  4000   0.252E-01    0.566E-02
DAV:   2    -0.338635827718E+03   -0.11098E-03   -0.91808E-04  4008   0.568E-02    0.872E-02
DAV:   3    -0.338635812779E+03    0.14940E-04   -0.11564E-04  4176   0.485E-02    0.760E-02
DAV:   4    -0.338635840567E+03   -0.27789E-04   -0.13515E-04  4312   0.522E-02    0.978E-02
DAV:   5    -0.338635824066E+03    0.16502E-04   -0.10945E-04  4456   0.473E-02    0.818E-02
DAV:   6    -0.338635786821E+03    0.37245E-04   -0.77688E-05  4336   0.348E-02    0.371E-02
DAV:   7    -0.338635783283E+03    0.35376E-05   -0.30657E-05  4256   0.215E-02    0.268E-02
DAV:   8    -0.338635780357E+03    0.29258E-05   -0.12772E-05  3856   0.150E-02    0.168E-02
DAV:   9    -0.338635778045E+03    0.23117E-05   -0.40381E-06  2432   0.827E-03    0.519E-03
DAV:  10    -0.338635778130E+03   -0.84372E-07   -0.95979E-07  2136   0.337E-03
  55 F= -.33863578E+03 E0= -.33853308E+03  d E =-.583923E-03
quench:  g(F)=  0.000E+00 g(S)=  0.000E+00 dE (1.order)= 0.000E+00
 bond charge predicted
       N       E                     dE             d eps       ncg     rms          rms(c)
DAV:   1    -0.338636270810E+03   -0.49276E-03   -0.44643E-02  4000   0.245E-01    0.555E-02
DAV:   2    -0.338636370888E+03   -0.10008E-03   -0.86861E-04  4000   0.547E-02    0.819E-02
DAV:   3    -0.338636335444E+03    0.35445E-04   -0.89032E-05  4192   0.428E-02    0.448E-02
DAV:   4    -0.338636411053E+03   -0.75609E-04   -0.12571E-04  4360   0.482E-02    0.110E-01
DAV:   5    -0.338636403950E+03    0.71027E-05   -0.14936E-04  4464   0.560E-02    0.106E-01
DAV:   6    -0.338636334032E+03    0.69918E-04   -0.94431E-05  4352   0.404E-02    0.364E-02
DAV:   7    -0.338636331537E+03    0.24945E-05   -0.30234E-05  4176   0.218E-02    0.262E-02
DAV:   8    -0.338636327876E+03    0.36612E-05   -0.11466E-05  3840   0.146E-02    0.152E-02
DAV:   9    -0.338636326198E+03    0.16780E-05   -0.34299E-06  2440   0.747E-03    0.599E-03
DAV:  10    -0.338636326210E+03   -0.11561E-07   -0.10155E-06  2136   0.357E-03
  56 F= -.33863633E+03 E0= -.33853364E+03  d E =-.548080E-03
quench:  g(F)=  0.000E+00 g(S)=  0.000E+00 dE (1.order)= 0.000E+00
 bond charge predicted
       N       E                     dE             d eps       ncg     rms          rms(c)
DAV:   1    -0.338636687183E+03   -0.36099E-03   -0.34661E-02  4000   0.211E-01    0.550E-02
DAV:   2    -0.338636785262E+03   -0.98079E-04   -0.74522E-04  4040   0.558E-02    0.956E-02
DAV:   3    -0.338636791514E+03   -0.62520E-05   -0.16574E-04  4216   0.564E-02    0.102E-01
DAV:   4    -0.338636743829E+03    0.47685E-04   -0.11136E-04  4232   0.490E-02    0.609E-02
DAV:   5    -0.338636762520E+03   -0.18691E-04   -0.89850E-05  4336   0.404E-02    0.756E-02
DAV:   6    -0.338636730183E+03    0.32337E-04   -0.75380E-05  4288   0.344E-02    0.370E-02
DAV:   7    -0.338636726645E+03    0.35378E-05   -0.31331E-05  4360   0.217E-02    0.277E-02
DAV:   8    -0.338636724477E+03    0.21678E-05   -0.15198E-05  3880   0.160E-02    0.203E-02
DAV:   9    -0.338636720942E+03    0.35351E-05   -0.56409E-06  2752   0.997E-03    0.517E-03
DAV:  10    -0.338636721176E+03   -0.23399E-06   -0.13197E-06  2232   0.424E-03
  57 F= -.33863672E+03 E0= -.33853406E+03  d E =-.394967E-03
quench:  g(F)=  0.000E+00 g(S)=  0.000E+00 dE (1.order)= 0.000E+00
 bond charge predicted
       N       E                     dE             d eps       ncg     rms          rms(c)
DAV:   1    -0.338636964662E+03   -0.24372E-03   -0.81443E-03  4000   0.910E-02    0.319E-02
DAV:   2    -0.338636982093E+03   -0.17431E-04   -0.16784E-04  4024   0.276E-02    0.471E-02
DAV:   3    -0.338636988377E+03   -0.62836E-05   -0.55903E-05  4184   0.310E-02    0.573E-02
DAV:   4    -0.338636980676E+03    0.77001E-05   -0.41815E-05  4240   0.294E-02    0.455E-02
DAV:   5    -0.338636978465E+03    0.22111E-05   -0.33864E-05  4280   0.259E-02    0.414E-02
DAV:   6    -0.338636968792E+03    0.96732E-05   -0.22080E-05  4112   0.204E-02    0.204E-02
DAV:   7    -0.338636967168E+03    0.16244E-05   -0.93175E-06  3552   0.124E-02    0.143E-02
DAV:   8    -0.338636966279E+03    0.88925E-06   -0.40228E-06  2440   0.852E-03
  58 F= -.33863697E+03 E0= -.33853431E+03  d E =-.245102E-03
quench:  g(F)=  0.000E+00 g(S)=  0.000E+00 dE (1.order)= 0.000E+00
 bond charge predicted
       N       E                     dE             d eps       ncg     rms          rms(c)
DAV:   1    -0.338637117411E+03   -0.15024E-03   -0.33317E-03  4000   0.673E-02    0.158E-02
DAV:   2    -0.338637131031E+03   -0.13620E-04   -0.73865E-05  4024   0.198E-02    0.368E-02
DAV:   3    -0.338637126335E+03    0.46955E-05   -0.17054E-05  3944   0.183E-02    0.275E-02
DAV:   4    -0.338637124134E+03    0.22015E-05   -0.93152E-06  2752   0.140E-02    0.211E-02
DAV:   5    -0.338637123565E+03    0.56860E-06   -0.72439E-06  3072   0.115E-02
  59 F= -.33863712E+03 E0= -.33853447E+03  d E =-.157287E-03
quench:  g(F)=  0.000E+00 g(S)=  0.000E+00 dE (1.order)= 0.000E+00
 bond charge predicted
       N       E                     dE             d eps       ncg     rms          rms(c)
DAV:   1    -0.338637278969E+03   -0.15483E-03   -0.33566E-03  4000   0.685E-02    0.188E-02
DAV:   2    -0.338637296419E+03   -0.17450E-04   -0.81013E-05  4032   0.238E-02    0.418E-02
DAV:   3    -0.338637284916E+03    0.11503E-04   -0.24622E-05  4160   0.213E-02    0.205E-02
DAV:   4    -0.338637290255E+03   -0.53399E-05   -0.12187E-05  3304   0.154E-02    0.331E-02
DAV:   5    -0.338637288242E+03    0.20131E-05   -0.14133E-05  2760   0.168E-02    0.279E-02
DAV:   6    -0.338637283878E+03    0.43639E-05   -0.80040E-06  2632   0.123E-02    0.114E-02
DAV:   7    -0.338637283127E+03    0.75148E-06   -0.26164E-06  2464   0.762E-03
  60 F= -.33863728E+03 E0= -.33853463E+03  d E =-.159562E-03
quench:  g(F)=  0.000E+00 g(S)=  0.000E+00 dE (1.order)= 0.000E+00
 bond charge predicted
       N       E                     dE             d eps       ncg     rms          rms(c)
DAV:   1    -0.338637446453E+03   -0.16257E-03   -0.35521E-03  4000   0.699E-02    0.167E-02
DAV:   2    -0.338637461059E+03   -0.14606E-04   -0.76985E-05  4008   0.195E-02    0.377E-02
DAV:   3    -0.338637453458E+03    0.76010E-05   -0.19504E-05  4136   0.180E-02    0.205E-02
DAV:   4    -0.338637458635E+03   -0.51767E-05   -0.11030E-05  2672   0.150E-02    0.330E-02
DAV:   5    -0.338637453120E+03    0.55145E-05   -0.98637E-06  2720   0.145E-02    0.165E-02
DAV:   6    -0.338637452010E+03    0.11100E-05   -0.40404E-06  2504   0.979E-03    0.105E-02
DAV:   7    -0.338637451611E+03    0.39889E-06   -0.21207E-06  2344   0.675E-03
  61 F= -.33863745E+03 E0= -.33853480E+03  d E =-.168484E-03
quench:  g(F)=  0.000E+00 g(S)=  0.000E+00 dE (1.order)= 0.000E+00
 bond charge predicted
       N       E                     dE             d eps       ncg     rms          rms(c)
DAV:   1    -0.338637621695E+03   -0.16969E-03   -0.37452E-03  4000   0.721E-02    0.176E-02
DAV:   2    -0.338637645272E+03   -0.23577E-04   -0.92527E-05  4016   0.248E-02    0.521E-02
DAV:   3    -0.338637627614E+03    0.17659E-04   -0.26747E-05  4184   0.210E-02    0.158E-02
DAV:   4    -0.338637631666E+03   -0.40528E-05   -0.93409E-06  3480   0.129E-02    0.272E-02
DAV:   5    -0.338637631547E+03    0.11895E-06   -0.11162E-05  2512   0.156E-02    0.265E-02
DAV:   6    -0.338637627299E+03    0.42489E-05   -0.62922E-06  2568   0.118E-02    0.107E-02
DAV:   7    -0.338637627108E+03    0.19060E-06   -0.24443E-06  2344   0.682E-03
  62 F= -.33863763E+03 E0= -.33853498E+03  d E =-.175497E-03
quench:  g(F)=  0.000E+00 g(S)=  0.000E+00 dE (1.order)= 0.000E+00
 bond charge predicted
       N       E                     dE             d eps       ncg     rms          rms(c)
DAV:   1    -0.338637802713E+03   -0.17541E-03   -0.39411E-03  4000   0.743E-02    0.186E-02
DAV:   2    -0.338637828792E+03   -0.26078E-04   -0.10236E-04  4016   0.261E-02    0.547E-02
DAV:   3    -0.338637809007E+03    0.19785E-04   -0.30732E-05  4216   0.224E-02    0.165E-02
DAV:   4    -0.338637812185E+03   -0.31780E-05   -0.90625E-06  3664   0.129E-02    0.244E-02
DAV:   5    -0.338637816773E+03   -0.45878E-05   -0.13736E-05  2592   0.172E-02    0.353E-02
DAV:   6    -0.338637808462E+03    0.83107E-05   -0.90409E-06  2552   0.138E-02    0.102E-02
DAV:   7    -0.338637808666E+03   -0.20429E-06   -0.26700E-06  2408   0.711E-03
  63 F= -.33863781E+03 E0= -.33853517E+03  d E =-.181558E-03
quench:  g(F)=  0.000E+00 g(S)=  0.000E+00 dE (1.order)= 0.000E+00
 bond charge predicted
       N       E                     dE             d eps       ncg     rms          rms(c)
DAV:   1    -0.338637988301E+03   -0.17984E-03   -0.41324E-03  4000   0.763E-02    0.188E-02
DAV:   2    -0.338638015432E+03   -0.27131E-04   -0.10364E-04  4024   0.261E-02    0.557E-02
DAV:   3    -0.338637995897E+03    0.19535E-04   -0.30718E-05  4232   0.227E-02    0.200E-02
DAV:   4    -0.338638002759E+03   -0.68612E-05   -0.13079E-05  2984   0.162E-02    0.363E-02
DAV:   5    -0.338637996651E+03    0.61075E-05   -0.12242E-05  3240   0.160E-02    0.193E-02
DAV:   6    -0.338637994718E+03    0.19328E-05   -0.60111E-06  2736   0.111E-02    0.108E-02
DAV:   7    -0.338637994749E+03   -0.30712E-07   -0.28902E-06  2408   0.733E-03
  64 F= -.33863799E+03 E0= -.33853535E+03  d E =-.186083E-03
quench:  g(F)=  0.000E+00 g(S)=  0.000E+00 dE (1.order)= 0.000E+00
 bond charge predicted
       N       E                     dE             d eps       ncg     rms          rms(c)
DAV:   1    -0.338638178402E+03   -0.18368E-03   -0.43279E-03  4000   0.782E-02    0.191E-02
DAV:   2    -0.338638202831E+03   -0.24429E-04   -0.10547E-04  4008   0.249E-02    0.514E-02
DAV:   3    -0.338638185518E+03    0.17313E-04   -0.28186E-05  4232   0.216E-02    0.166E-02
DAV:   4    -0.338638188933E+03   -0.34143E-05   -0.10198E-05  3728   0.131E-02    0.249E-02
DAV:   5    -0.338638194441E+03   -0.55080E-05   -0.14510E-05  2752   0.177E-02    0.374E-02
DAV:   6    -0.338638185136E+03    0.93046E-05   -0.10007E-05  2648   0.149E-02    0.114E-02
DAV:   7    -0.338638185275E+03   -0.13886E-06   -0.29887E-06  2448   0.749E-03
  65 F= -.33863819E+03 E0= -.33853555E+03  d E =-.190526E-03
quench:  g(F)=  0.000E+00 g(S)=  0.000E+00 dE (1.order)= 0.000E+00
 bond charge predicted
       N       E                     dE             d eps       ncg     rms          rms(c)
DAV:   1    -0.338638373007E+03   -0.18787E-03   -0.45283E-03  4000   0.802E-02    0.197E-02
DAV:   2    -0.338638400912E+03   -0.27906E-04   -0.11254E-04  4016   0.267E-02    0.558E-02
DAV:   3    -0.338638380404E+03    0.20508E-04   -0.30206E-05  4280   0.228E-02    0.167E-02
DAV:   4    -0.338638385055E+03   -0.46506E-05   -0.10448E-05  3752   0.139E-02    0.279E-02
DAV:   5    -0.338638388577E+03   -0.35222E-05   -0.15655E-05  2744   0.184E-02    0.361E-02
DAV:   6    -0.338638380140E+03    0.84371E-05   -0.10277E-05  2792   0.145E-02    0.119E-02
DAV:   7    -0.338638380240E+03   -0.10000E-06   -0.32792E-06  2448   0.774E-03
  66 F= -.33863838E+03 E0= -.33853575E+03  d E =-.194965E-03
quench:  g(F)=  0.000E+00 g(S)=  0.000E+00 dE (1.order)= 0.000E+00
 bond charge predicted
       N       E                     dE             d eps       ncg     rms          rms(c)
DAV:   1    -0.338638571637E+03   -0.19150E-03   -0.47343E-03  4000   0.822E-02    0.203E-02
DAV:   2    -0.338638601361E+03   -0.29724E-04   -0.12075E-04  4032   0.274E-02    0.574E-02
DAV:   3    -0.338638581232E+03    0.20129E-04   -0.35043E-05  4256   0.241E-02    0.234E-02
DAV:   4    -0.338638587359E+03   -0.61264E-05   -0.14865E-05  3288   0.172E-02    0.367E-02
DAV:   5    -0.338638581849E+03    0.55098E-05   -0.13451E-05  3448   0.169E-02    0.215E-02
DAV:   6    -0.338638579371E+03    0.24775E-05   -0.71275E-06  2936   0.123E-02    0.119E-02
DAV:   7    -0.338638579296E+03    0.75364E-07   -0.33611E-06  2432   0.804E-03
  67 F= -.33863858E+03 E0= -.33853595E+03  d E =-.199056E-03
quench:  g(F)=  0.000E+00 g(S)=  0.000E+00 dE (1.order)= 0.000E+00
 bond charge predicted
       N       E                     dE             d eps       ncg     rms          rms(c)
DAV:   1    -0.338638774160E+03   -0.19479E-03   -0.49449E-03  4000   0.842E-02    0.209E-02
DAV:   2    -0.338638807032E+03   -0.32873E-04   -0.12822E-04  4016   0.289E-02    0.608E-02
DAV:   3    -0.338638782400E+03    0.24633E-04   -0.36101E-05  4280   0.247E-02    0.173E-02
DAV:   4    -0.338638786149E+03   -0.37489E-05   -0.11725E-05  3896   0.138E-02    0.259E-02
DAV:   5    -0.338638793242E+03   -0.70936E-05   -0.17341E-05  2856   0.191E-02    0.410E-02
DAV:   6    -0.338638782177E+03    0.11065E-04   -0.11935E-05  2944   0.162E-02    0.128E-02
DAV:   7    -0.338638782273E+03   -0.95511E-07   -0.36489E-06  2488   0.826E-03
  68 F= -.33863878E+03 E0= -.33853616E+03  d E =-.202977E-03
quench:  g(F)=  0.000E+00 g(S)=  0.000E+00 dE (1.order)= 0.000E+00
 bond charge predicted
       N       E                     dE             d eps       ncg     rms          rms(c)
DAV:   1    -0.338638980014E+03   -0.19784E-03   -0.51583E-03  4000   0.862E-02    0.214E-02
DAV:   2    -0.338639011845E+03   -0.31830E-04   -0.13231E-04  4008   0.286E-02    0.589E-02
DAV:   3    -0.338638989002E+03    0.22843E-04   -0.35124E-05  4216   0.245E-02    0.187E-02
DAV:   4    -0.338638994438E+03   -0.54363E-05   -0.12478E-05  3896   0.154E-02    0.306E-02
DAV:   5    -0.338638998584E+03   -0.41465E-05   -0.18997E-05  2968   0.201E-02    0.394E-02
DAV:   6    -0.338638988555E+03    0.10029E-04   -0.12119E-05  3024   0.158E-02    0.129E-02
DAV:   7    -0.338638988619E+03   -0.63679E-07   -0.37580E-06  2504   0.849E-03
  69 F= -.33863899E+03 E0= -.33853637E+03  d E =-.206346E-03
quench:  g(F)=  0.000E+00 g(S)=  0.000E+00 dE (1.order)= 0.000E+00
 bond charge predicted
       N       E                     dE             d eps       ncg     rms          rms(c)
DAV:   1    -0.338639189017E+03   -0.20046E-03   -0.53773E-03  4000   0.883E-02    0.220E-02
DAV:   2    -0.338639226301E+03   -0.37284E-04   -0.14275E-04  4008   0.307E-02    0.648E-02
DAV:   3    -0.338639199932E+03    0.26369E-04   -0.41167E-05  4264   0.267E-02    0.241E-02
DAV:   4    -0.338639207970E+03   -0.80387E-05   -0.17547E-05  3536   0.185E-02    0.405E-02
DAV:   5    -0.338639200857E+03    0.71131E-05   -0.16182E-05  3632   0.183E-02    0.229E-02
DAV:   6    -0.338639198250E+03    0.26073E-05   -0.82892E-06  3128   0.133E-02    0.134E-02
DAV:   7    -0.338639198050E+03    0.19969E-06   -0.41594E-06  2576   0.881E-03
  70 F= -.33863920E+03 E0= -.33853658E+03  d E =-.209431E-03
quench:  g(F)=  0.000E+00 g(S)=  0.000E+00 dE (1.order)= 0.000E+00
 bond charge predicted
       N       E                     dE             d eps       ncg     rms          rms(c)
DAV:   1    -0.338639400426E+03   -0.20218E-03   -0.55966E-03  4000   0.903E-02    0.227E-02
DAV:   2    -0.338639438576E+03   -0.38150E-04   -0.15103E-04  4008   0.313E-02    0.651E-02
DAV:   3    -0.338639410284E+03    0.28292E-04   -0.42653E-05  4192   0.267E-02    0.193E-02
DAV:   4    -0.338639412197E+03   -0.19127E-05   -0.12100E-05  4008   0.139E-02    0.209E-02
DAV:   5    -0.338639412730E+03   -0.53358E-06   -0.11038E-05  3472   0.148E-02    0.236E-02
DAV:   6    -0.338639412868E+03   -0.13743E-06   -0.83585E-06  2496   0.135E-02
  71 F= -.33863941E+03 E0= -.33853677E+03  d E =-.214817E-03
quench:  g(F)=  0.000E+00 g(S)=  0.000E+00 dE (1.order)= 0.000E+00
 bond charge predicted
       N       E                     dE             d eps       ncg     rms          rms(c)
DAV:   1    -0.338639613599E+03   -0.20087E-03   -0.58227E-03  4000   0.928E-02    0.250E-02
DAV:   2    -0.338639675375E+03   -0.61776E-04   -0.17374E-04  4056   0.369E-02    0.861E-02
DAV:   3    -0.338639635353E+03    0.40022E-04   -0.68391E-05  4320   0.366E-02    0.454E-02
DAV:   4    -0.338639626931E+03    0.84216E-05   -0.24310E-05  4160   0.218E-02    0.282E-02
DAV:   5    -0.338639627169E+03   -0.23739E-06   -0.14701E-05  3912   0.154E-02    0.239E-02
DAV:   6    -0.338639624051E+03    0.31173E-05   -0.11197E-05  3384   0.146E-02    0.142E-02
DAV:   7    -0.338639623720E+03    0.33086E-06   -0.52443E-06  3000   0.944E-03
  72 F= -.33863962E+03 E0= -.33853703E+03  d E =-.210853E-03
quench:  g(F)=  0.000E+00 g(S)=  0.000E+00 dE (1.order)= 0.000E+00
 bond charge predicted
       N       E                     dE             d eps       ncg     rms          rms(c)
DAV:   1    -0.338639828422E+03   -0.20437E-03   -0.60402E-03  4000   0.942E-02    0.237E-02
DAV:   2    -0.338639872503E+03   -0.44081E-04   -0.16737E-04  4016   0.343E-02    0.696E-02
DAV:   3    -0.338639841481E+03    0.31022E-04   -0.45401E-05  4192   0.296E-02    0.270E-02
DAV:   4    -0.338639848530E+03   -0.70493E-05   -0.19136E-05  3736   0.194E-02    0.406E-02
DAV:   5    -0.338639842381E+03    0.61492E-05   -0.19036E-05  3752   0.190E-02    0.256E-02
DAV:   6    -0.338639839642E+03    0.27391E-05   -0.97575E-06  3216   0.146E-02    0.163E-02
DAV:   7    -0.338639838619E+03    0.10227E-05   -0.51372E-06  2840   0.988E-03    0.121E-02
DAV:   8    -0.338639838675E+03   -0.56003E-07   -0.30536E-06  2312   0.724E-03
  73 F= -.33863984E+03 E0= -.33853724E+03  d E =-.214955E-03
quench:  g(F)=  0.000E+00 g(S)=  0.000E+00 dE (1.order)= 0.000E+00
 bond charge predicted
       N       E                     dE             d eps       ncg     rms          rms(c)
DAV:   1    -0.338640043564E+03   -0.20494E-03   -0.62612E-03  4000   0.958E-02    0.219E-02
DAV:   2    -0.338640064926E+03   -0.21362E-04   -0.14533E-04  4008   0.252E-02    0.405E-02
DAV:   3    -0.338640055231E+03    0.96945E-05   -0.19672E-05  4160   0.194E-02    0.198E-02
DAV:   4    -0.338640059834E+03   -0.46027E-05   -0.17185E-05  3936   0.160E-02    0.308E-02
DAV:   5    -0.338640070847E+03   -0.11013E-04   -0.21128E-05  3264   0.213E-02    0.494E-02
DAV:   6    -0.338640054713E+03    0.16134E-04   -0.15137E-05  2936   0.183E-02    0.155E-02
DAV:   7    -0.338640054330E+03    0.38304E-06   -0.48707E-06  2488   0.890E-03
  74 F= -.33864005E+03 E0= -.33853747E+03  d E =-.215655E-03
quench:  g(F)=  0.000E+00 g(S)=  0.000E+00 dE (1.order)= 0.000E+00
 bond charge predicted
       N       E                     dE             d eps       ncg     rms          rms(c)
DAV:   1    -0.338640259605E+03   -0.20489E-03   -0.64728E-03  4000   0.977E-02    0.245E-02
DAV:   2    -0.338640297266E+03   -0.37661E-04   -0.17678E-04  4024   0.334E-02    0.608E-02
DAV:   3    -0.338640271512E+03    0.25754E-04   -0.42738E-05  4216   0.273E-02    0.224E-02
DAV:   4    -0.338640273469E+03   -0.19575E-05   -0.15750E-05  4064   0.154E-02    0.242E-02
DAV:   5    -0.338640276600E+03   -0.31306E-05   -0.18119E-05  3584   0.164E-02    0.314E-02
DAV:   6    -0.338640274506E+03    0.20936E-05   -0.14510E-05  2656   0.163E-02    0.270E-02
DAV:   7    -0.338640270896E+03    0.36104E-05   -0.58798E-06  2712   0.123E-02    0.144E-02
DAV:   8    -0.338640270215E+03    0.68122E-06   -0.31277E-06  2368   0.756E-03
  75 F= -.33864027E+03 E0= -.33853769E+03  d E =-.215884E-03
quench:  g(F)=  0.000E+00 g(S)=  0.000E+00 dE (1.order)= 0.000E+00
 bond charge predicted
       N       E                     dE             d eps       ncg     rms          rms(c)
[...]
DAV:   3    -0.338640293486E+03    0.51480E-06   -0.59901E-07  2120   0.351E-03    0.267E-03
DAV:   4    -0.338640293483E+03    0.34051E-08   -0.12680E-07  2048   0.145E-03    0.237E-03
DAV:   5    -0.338640293462E+03    0.21500E-07   -0.63769E-08  2040   0.115E-03
 683 F= -.33864029E+03 E0= -.33853777E+03  d E =-.624146E-06
quench:  g(F)=  0.000E+00 g(S)=  0.000E+00 dE (1.order)= 0.000E+00
 bond charge predicted
       N       E                     dE             d eps       ncg     rms          rms(c)
DAV:   1    -0.338640294064E+03   -0.58101E-06   -0.33163E-05  3616   0.464E-03    0.202E-03
DAV:   2    -0.338640294642E+03   -0.57826E-06   -0.11539E-06  2280   0.413E-03    0.895E-03
DAV:   3    -0.338640294096E+03    0.54637E-06   -0.64918E-07  2128   0.371E-03    0.294E-03
DAV:   4    -0.338640294081E+03    0.14639E-07   -0.13067E-07  2048   0.149E-03    0.223E-03
DAV:   5    -0.338640294065E+03    0.15818E-07   -0.65941E-08  2040   0.112E-03
 684 F= -.33864029E+03 E0= -.33853777E+03  d E =-.603955E-06
quench:  g(F)=  0.000E+00 g(S)=  0.000E+00 dE (1.order)= 0.000E+00
 bond charge predicted
       N       E                     dE             d eps       ncg     rms          rms(c)
DAV:   1    -0.338640294617E+03   -0.53551E-06   -0.32689E-05  3608   0.460E-03    0.198E-03
DAV:   2    -0.338640295171E+03   -0.55460E-06   -0.10657E-06  2288   0.397E-03    0.835E-03
DAV:   3    -0.338640294647E+03    0.52446E-06   -0.60877E-07  2120   0.352E-03    0.259E-03
DAV:   4    -0.338640294648E+03   -0.93860E-09   -0.12576E-07  2048   0.143E-03    0.242E-03
DAV:   5    -0.338640294626E+03    0.21828E-07   -0.64644E-08  2040   0.116E-03
 685 F= -.33864029E+03 E0= -.33853777E+03  d E =-.560576E-06
quench:  g(F)=  0.000E+00 g(S)=  0.000E+00 dE (1.order)= 0.000E+00
 bond charge predicted
       N       E                     dE             d eps       ncg     rms          rms(c)
DAV:   1    -0.338640295156E+03   -0.50774E-06   -0.31903E-05  3608   0.456E-03    0.200E-03
DAV:   2    -0.338640295716E+03   -0.56039E-06   -0.11210E-06  2288   0.407E-03    0.880E-03
DAV:   3    -0.338640295187E+03    0.52933E-06   -0.62974E-07  2128   0.366E-03    0.292E-03
DAV:   4    -0.338640295173E+03    0.13642E-07   -0.12806E-07  2048   0.148E-03    0.221E-03
DAV:   5    -0.338640295157E+03    0.15905E-07   -0.64911E-08  2040   0.111E-03
 686 F= -.33864030E+03 E0= -.33853777E+03  d E =-.531087E-06
quench:  g(F)=  0.000E+00 g(S)=  0.000E+00 dE (1.order)= 0.000E+00
 bond charge predicted
       N       E                     dE             d eps       ncg     rms          rms(c)
DAV:   1    -0.338640295634E+03   -0.46110E-06   -0.30739E-05  3568   0.446E-03    0.196E-03
DAV:   2    -0.338640296179E+03   -0.54470E-06   -0.10408E-06  2280   0.393E-03    0.828E-03
DAV:   3    -0.338640295660E+03    0.51902E-06   -0.60084E-07  2112   0.347E-03    0.247E-03
DAV:   4    -0.338640295665E+03   -0.52460E-08   -0.12073E-07  2048   0.140E-03    0.242E-03
DAV:   5    -0.338640295642E+03    0.22927E-07   -0.63374E-08  2040   0.115E-03
 687 F= -.33864030E+03 E0= -.33853777E+03  d E =-.485001E-06
quench:  g(F)=  0.000E+00 g(S)=  0.000E+00 dE (1.order)= 0.000E+00
 bond charge predicted
       N       E                     dE             d eps       ncg     rms          rms(c)
DAV:   1    -0.338640296093E+03   -0.42839E-06   -0.29344E-05  3528   0.437E-03    0.194E-03
DAV:   2    -0.338640296615E+03   -0.52158E-06   -0.10471E-06  2272   0.395E-03    0.850E-03
DAV:   3    -0.338640296125E+03    0.49044E-06   -0.58696E-07  2128   0.355E-03    0.290E-03
DAV:   4    -0.338640296107E+03    0.17273E-07   -0.12223E-07  2048   0.145E-03    0.211E-03
DAV:   5    -0.338640296094E+03    0.13773E-07   -0.60831E-08  2040   0.107E-03
 688 F= -.33864030E+03 E0= -.33853777E+03  d E =-.451422E-06
quench:  g(F)=  0.000E+00 g(S)=  0.000E+00 dE (1.order)= 0.000E+00
 bond charge predicted
       N       E                     dE             d eps       ncg     rms          rms(c)
DAV:   1    -0.338640296494E+03   -0.38664E-06   -0.27840E-05  3480   0.425E-03    0.189E-03
DAV:   2    -0.338640297004E+03   -0.51036E-06   -0.97076E-07  2272   0.381E-03    0.802E-03
DAV:   3    -0.338640296517E+03    0.48763E-06   -0.56495E-07  2104   0.336E-03    0.235E-03
DAV:   4    -0.338640296522E+03   -0.51077E-08   -0.11191E-07  2048   0.134E-03    0.234E-03
DAV:   5    -0.338640296500E+03    0.21355E-07   -0.58938E-08  2040   0.111E-03
 689 F= -.33864030E+03 E0= -.33853777E+03  d E =-.406901E-06
quench:  g(F)=  0.000E+00 g(S)=  0.000E+00 dE (1.order)= 0.000E+00
 bond charge predicted
       N       E                     dE             d eps       ncg     rms          rms(c)
DAV:   1    -0.338640296873E+03   -0.35149E-06   -0.26492E-05  3440   0.416E-03    0.184E-03
DAV:   2    -0.338640297343E+03   -0.46955E-06   -0.94140E-07  2272   0.375E-03    0.805E-03
DAV:   3    -0.338640296907E+03    0.43606E-06   -0.52506E-07  2112   0.338E-03    0.285E-03
DAV:   4    -0.338640296886E+03    0.20729E-07   -0.11334E-07  2048   0.139E-03    0.197E-03
DAV:   5    -0.338640296875E+03    0.10907E-07   -0.55088E-08  2040   0.101E-03
 690 F= -.33864030E+03 E0= -.33853777E+03  d E =-.374697E-06
quench:  g(F)=  0.000E+00 g(S)=  0.000E+00 dE (1.order)= 0.000E+00
 bond charge predicted
       N       E                     dE             d eps       ncg     rms          rms(c)
DAV:   1    -0.338640297203E+03   -0.31724E-06   -0.25425E-05  3392   0.406E-03    0.180E-03
DAV:   2    -0.338640297667E+03   -0.46392E-06   -0.88029E-07  2248   0.362E-03    0.764E-03
DAV:   3    -0.338640297225E+03    0.44202E-06   -0.51243E-07  2088   0.320E-03    0.227E-03
DAV:   4    -0.338640297229E+03   -0.41473E-08   -0.10250E-07  2040   0.129E-03    0.222E-03
DAV:   5    -0.338640297211E+03    0.18699E-07   -0.53540E-08  2040   0.106E-03
 691 F= -.33864030E+03 E0= -.33853777E+03  d E =-.335494E-06
quench:  g(F)=  0.000E+00 g(S)=  0.000E+00 dE (1.order)= 0.000E+00
 bond charge predicted
       N       E                     dE             d eps       ncg     rms          rms(c)
DAV:   1    -0.338640297518E+03   -0.28828E-06   -0.24742E-05  3376   0.401E-03    0.176E-03
DAV:   2    -0.338640297936E+03   -0.41814E-06   -0.84781E-07  2232   0.355E-03    0.760E-03
DAV:   3    -0.338640297549E+03    0.38720E-06   -0.46922E-07  2088   0.321E-03    0.275E-03
DAV:   4    -0.338640297529E+03    0.19674E-07   -0.10452E-07  2048   0.134E-03    0.188E-03
DAV:   5    -0.338640297520E+03    0.93933E-08   -0.50879E-08  2040   0.965E-04
 692 F= -.33864030E+03 E0= -.33853777E+03  d E =-.308857E-06
quench:  g(F)=  0.000E+00 g(S)=  0.000E+00 dE (1.order)= 0.000E+00
 bond charge predicted
       N       E                     dE             d eps       ncg     rms          rms(c)
DAV:   1    -0.338640297789E+03   -0.25981E-06   -0.24387E-05  3384   0.397E-03    0.173E-03
DAV:   2    -0.338640298217E+03   -0.42804E-06   -0.81328E-07  2224   0.348E-03    0.735E-03
DAV:   3    -0.338640297812E+03    0.40437E-06   -0.47083E-07  2072   0.308E-03    0.227E-03
DAV:   4    -0.338640297811E+03    0.10914E-08   -0.96854E-08  2040   0.126E-03    0.210E-03
DAV:   5    -0.338640297795E+03    0.16385E-07   -0.49393E-08  2040   0.101E-03
 693 F= -.33864030E+03 E0= -.33853777E+03  d E =-.275395E-06
quench:  g(F)=  0.000E+00 g(S)=  0.000E+00 dE (1.order)= 0.000E+00
 bond charge predicted
       N       E                     dE             d eps       ncg     rms          rms(c)
DAV:   1    -0.338640298050E+03   -0.23826E-06   -0.24317E-05  3376   0.396E-03    0.171E-03
DAV:   2    -0.338640298436E+03   -0.38606E-06   -0.79778E-07  2232   0.343E-03    0.731E-03
DAV:   3    -0.338640298077E+03    0.35905E-06   -0.43932E-07  2088   0.310E-03    0.261E-03
DAV:   4    -0.338640298062E+03    0.14341E-07   -0.98064E-08  2048   0.130E-03    0.188E-03
DAV:   5    -0.338640298051E+03    0.10899E-07   -0.49666E-08  2040   0.955E-04
 694 F= -.33864030E+03 E0= -.33853777E+03  d E =-.256405E-06
quench:  g(F)=  0.000E+00 g(S)=  0.000E+00 dE (1.order)= 0.000E+00
 bond charge predicted
       N       E                     dE             d eps       ncg     rms          rms(c)
DAV:   1    -0.338640298270E+03   -0.20793E-06   -0.24435E-05  3376   0.397E-03    0.171E-03
DAV:   2    -0.338640298687E+03   -0.41691E-06   -0.78844E-07  2224   0.341E-03    0.722E-03
DAV:   3    -0.338640298297E+03    0.38984E-06   -0.45346E-07  2064   0.304E-03    0.232E-03
DAV:   4    -0.338640298293E+03    0.39436E-08   -0.95571E-08  2040   0.125E-03    0.203E-03
DAV:   5    -0.338640298279E+03    0.14283E-07   -0.47819E-08  2040   0.996E-04
 695 F= -.33864030E+03 E0= -.33853777E+03  d E =-.227672E-06
quench:  g(F)=  0.000E+00 g(S)=  0.000E+00 dE (1.order)= 0.000E+00
 bond charge predicted
       N       E                     dE             d eps       ncg     rms          rms(c)
DAV:   1    -0.338640298489E+03   -0.19575E-06   -0.24705E-05  3384   0.399E-03    0.170E-03
DAV:   2    -0.338640298865E+03   -0.37571E-06   -0.78536E-07  2232   0.339E-03    0.722E-03
DAV:   3    -0.338640298515E+03    0.34927E-06   -0.43081E-07  2088   0.306E-03    0.256E-03
DAV:   4    -0.338640298502E+03    0.13330E-07   -0.96751E-08  2048   0.129E-03    0.191E-03
DAV:   5    -0.338640298491E+03    0.10936E-07   -0.50268E-08  2040   0.961E-04
 696 F= -.33864030E+03 E0= -.33853777E+03  d E =-.212203E-06
quench:  g(F)=  0.000E+00 g(S)=  0.000E+00 dE (1.order)= 0.000E+00
 bond charge predicted
       N       E                     dE             d eps       ncg     rms          rms(c)
DAV:   1    -0.338640298671E+03   -0.16844E-06   -0.25056E-05  3392   0.401E-03    0.171E-03
DAV:   2    -0.338640299088E+03   -0.41760E-06   -0.79417E-07  2224   0.342E-03    0.725E-03
DAV:   3    -0.338640298698E+03    0.38982E-06   -0.45512E-07  2072   0.305E-03    0.236E-03
DAV:   4    -0.338640298693E+03    0.48967E-08   -0.97083E-08  2040   0.126E-03    0.203E-03
DAV:   5    -0.338640298679E+03    0.14596E-07   -0.48159E-08  2040   0.999E-04
 697 F= -.33864030E+03 E0= -.33853777E+03  d E =-.187654E-06
quench:  g(F)=  0.000E+00 g(S)=  0.000E+00 dE (1.order)= 0.000E+00
 bond charge predicted
       N       E                     dE             d eps       ncg     rms          rms(c)
DAV:   1    -0.338640298853E+03   -0.15953E-06   -0.25485E-05  3416   0.405E-03    0.171E-03
DAV:   2    -0.338640299232E+03   -0.37939E-06   -0.79628E-07  2232   0.341E-03    0.724E-03
DAV:   3    -0.338640298878E+03    0.35435E-06   -0.43630E-07  2088   0.307E-03    0.255E-03
DAV:   4    -0.338640298867E+03    0.10637E-07   -0.97853E-08  2048   0.130E-03    0.195E-03
DAV:   5    -0.338640298856E+03    0.11598E-07   -0.51916E-08  2040   0.978E-04
 698 F= -.33864030E+03 E0= -.33853777E+03  d E =-.176929E-06
quench:  g(F)=  0.000E+00 g(S)=  0.000E+00 dE (1.order)= 0.000E+00
 bond charge predicted
       N       E                     dE             d eps       ncg     rms          rms(c)
DAV:   1    -0.338640299003E+03   -0.13518E-06   -0.25945E-05  3440   0.408E-03    0.173E-03
DAV:   2    -0.338640299432E+03   -0.42973E-06   -0.81463E-07  2224   0.346E-03    0.735E-03
DAV:   3    -0.338640299032E+03    0.40053E-06   -0.46744E-07  2072   0.309E-03    0.241E-03
DAV:   4    -0.338640299026E+03    0.60754E-08   -0.10001E-07  2040   0.128E-03    0.205E-03
DAV:   5    -0.338640299012E+03    0.13752E-07   -0.49538E-08  2040   0.101E-03
 699 F= -.33864030E+03 E0= -.33853778E+03  d E =-.156142E-06
quench:  g(F)=  0.000E+00 g(S)=  0.000E+00 dE (1.order)= 0.000E+00
 bond charge predicted
       N       E                     dE             d eps       ncg     rms          rms(c)
DAV:   1    -0.338640299160E+03   -0.13412E-06   -0.26446E-05  3456   0.412E-03    0.174E-03
DAV:   2    -0.338640299550E+03   -0.39033E-06   -0.82054E-07  2240   0.345E-03    0.734E-03
DAV:   3    -0.338640299185E+03    0.36477E-06   -0.44909E-07  2088   0.312E-03    0.258E-03
DAV:   4    -0.338640299175E+03    0.10841E-07   -0.10078E-07  2048   0.132E-03    0.199E-03
DAV:   5    -0.338640299162E+03    0.12406E-07   -0.53870E-08  2040   0.995E-04
 700 F= -.33864030E+03 E0= -.33853777E+03  d E =-.150176E-06
quench:  g(F)=  0.000E+00 g(S)=  0.000E+00 dE (1.order)= 0.000E+00
 bond charge predicted
       N       E                     dE             d eps       ncg     rms          rms(c)
DAV:   1    -0.338640299288E+03   -0.11348E-06   -0.26955E-05  3480   0.416E-03    0.176E-03
DAV:   2    -0.338640299733E+03   -0.44491E-06   -0.84465E-07  2232   0.352E-03    0.749E-03
DAV:   3    -0.338640299319E+03    0.41389E-06   -0.48527E-07  2072   0.314E-03    0.244E-03
DAV:   4    -0.338640299312E+03    0.68103E-08   -0.10357E-07  2040   0.130E-03    0.210E-03
DAV:   5    -0.338640299297E+03    0.15265E-07   -0.51512E-08  2040   0.103E-03
 701 F= -.33864030E+03 E0= -.33853778E+03  d E =-.134831E-06
quench:  g(F)=  0.000E+00 g(S)=  0.000E+00 dE (1.order)= 0.000E+00
 bond charge predicted
       N       E                     dE             d eps       ncg     rms          rms(c)
DAV:   1    -0.338640299433E+03   -0.12072E-06   -0.27486E-05  3488   0.420E-03    0.177E-03
DAV:   2    -0.338640299838E+03   -0.40545E-06   -0.85240E-07  2240   0.352E-03    0.748E-03
DAV:   3    -0.338640299459E+03    0.37938E-06   -0.46706E-07  2088   0.317E-03    0.261E-03
DAV:   4    -0.338640299449E+03    0.99171E-08   -0.10406E-07  2048   0.134E-03    0.204E-03
DAV:   5    -0.338640299436E+03    0.13235E-07   -0.56236E-08  2040   0.102E-03
 702 F= -.33864030E+03 E0= -.33853777E+03  d E =-.138913E-06
quench:  g(F)=  0.000E+00 g(S)=  0.000E+00 dE (1.order)= 0.000E+00
 bond charge predicted
       N       E                     dE             d eps       ncg     rms          rms(c)
DAV:   1    -0.338640299554E+03   -0.10458E-06   -0.28011E-05  3512   0.424E-03    0.180E-03
DAV:   2    -0.338640300017E+03   -0.46367E-06   -0.87960E-07  2248   0.360E-03    0.765E-03
DAV:   3    -0.338640299585E+03    0.43264E-06   -0.50684E-07  2072   0.321E-03    0.248E-03
DAV:   4    -0.338640299579E+03    0.56607E-08   -0.10770E-07  2056   0.133E-03    0.214E-03
DAV:   5    -0.338640299563E+03    0.16436E-07   -0.53685E-08  2040   0.105E-03
 703 F= -.33864030E+03 E0= -.33853778E+03  d E =-.126740E-06
quench:  g(F)=  0.000E+00 g(S)=  0.000E+00 dE (1.order)= 0.000E+00
 bond charge predicted
       N       E                     dE             d eps       ncg     rms          rms(c)
DAV:   1    -0.338640299699E+03   -0.11985E-06   -0.28540E-05  3512   0.428E-03    0.181E-03
DAV:   2    -0.338640300121E+03   -0.42229E-06   -0.88692E-07  2248   0.359E-03    0.763E-03
DAV:   3    -0.338640299725E+03    0.39586E-06   -0.48684E-07  2088   0.324E-03    0.265E-03
DAV:   4    -0.338640299715E+03    0.99244E-08   -0.10796E-07  2048   0.137E-03    0.208E-03
DAV:   5    -0.338640299701E+03    0.13933E-07   -0.58655E-08  2040   0.104E-03
 704 F= -.33864030E+03 E0= -.33853777E+03  d E =-.138854E-06
quench:  g(F)=  0.000E+00 g(S)=  0.000E+00 dE (1.order)= 0.000E+00
 bond charge predicted
       N       E                     dE             d eps       ncg     rms          rms(c)
DAV:   1    -0.338640299826E+03   -0.11043E-06   -0.29049E-05  3528   0.432E-03    0.184E-03
DAV:   2    -0.338640300310E+03   -0.48387E-06   -0.91834E-07  2264   0.368E-03    0.783E-03
DAV:   3    -0.338640299858E+03    0.45182E-06   -0.53061E-07  2088   0.328E-03    0.252E-03
DAV:   4    -0.338640299852E+03    0.62137E-08   -0.11194E-07  2040   0.136E-03    0.219E-03
DAV:   5    -0.338640299835E+03    0.16560E-07   -0.56005E-08  2040   0.108E-03
 705 F= -.33864030E+03 E0= -.33853778E+03  d E =-.133645E-06
quench:  g(F)=  0.000E+00 g(S)=  0.000E+00 dE (1.order)= 0.000E+00
 bond charge predicted
       N       E                     dE             d eps       ncg     rms          rms(c)
DAV:   1    -0.338640299982E+03   -0.13052E-06   -0.29543E-05  3536   0.435E-03    0.184E-03
DAV:   2    -0.338640300423E+03   -0.44050E-06   -0.92353E-07  2272   0.367E-03    0.779E-03
DAV:   3    -0.338640300009E+03    0.41410E-06   -0.50783E-07  2096   0.330E-03    0.269E-03
DAV:   4    -0.338640299999E+03    0.97425E-08   -0.11177E-07  2048   0.139E-03    0.213E-03
DAV:   5    -0.338640299984E+03    0.14756E-07   -0.61092E-08  2040   0.106E-03
 706 F= -.33864030E+03 E0= -.33853778E+03  d E =-.148975E-06
quench:  g(F)=  0.000E+00 g(S)=  0.000E+00 dE (1.order)= 0.000E+00
 bond charge predicted
       N       E                     dE             d eps       ncg     rms          rms(c)
DAV:   1    -0.338640300129E+03   -0.13055E-06   -0.29992E-05  3560   0.439E-03    0.187E-03
DAV:   2    -0.338640300636E+03   -0.50657E-06   -0.95716E-07  2272   0.376E-03    0.801E-03
DAV:   3    -0.338640300161E+03    0.47471E-06   -0.55549E-07  2088   0.334E-03    0.252E-03
DAV:   4    -0.338640300157E+03    0.42273E-08   -0.11572E-07  2048   0.138E-03    0.226E-03
DAV:   5    -0.338640300139E+03    0.17775E-07   -0.58537E-08  2040   0.110E-03
 707 F= -.33864030E+03 E0= -.33853778E+03  d E =-.155160E-06
quench:  g(F)=  0.000E+00 g(S)=  0.000E+00 dE (1.order)= 0.000E+00
 bond charge predicted
       N       E                     dE             d eps       ncg     rms          rms(c)
DAV:   1    -0.338640300313E+03   -0.15621E-06   -0.30387E-05  3560   0.442E-03    0.188E-03
DAV:   2    -0.338640300772E+03   -0.45871E-06   -0.96187E-07  2272   0.374E-03    0.794E-03
DAV:   3    -0.338640300340E+03    0.43154E-06   -0.52971E-07  2120   0.336E-03    0.271E-03
DAV:   4    -0.338640300330E+03    0.10077E-07   -0.11475E-07  2040   0.141E-03    0.217E-03
DAV:   5    -0.338640300315E+03    0.15018E-07   -0.63204E-08  2040   0.108E-03
 708 F= -.33864030E+03 E0= -.33853778E+03  d E =-.176056E-06
quench:  g(F)=  0.000E+00 g(S)=  0.000E+00 dE (1.order)= 0.000E+00
 bond charge predicted
       N       E                     dE             d eps       ncg     rms          rms(c)
DAV:   1    -0.338640300492E+03   -0.16208E-06   -0.30692E-05  3576   0.444E-03    0.191E-03
DAV:   2    -0.338640301016E+03   -0.52383E-06   -0.99106E-07  2272   0.383E-03    0.816E-03
DAV:   3    -0.338640300523E+03    0.49332E-06   -0.57747E-07  2104   0.341E-03    0.254E-03
DAV:   4    -0.338640300520E+03    0.28667E-08   -0.11917E-07  2048   0.139E-03    0.231E-03
DAV:   5    -0.338640300501E+03    0.19441E-07   -0.60692E-08  2040   0.112E-03
 709 F= -.33864030E+03 E0= -.33853778E+03  d E =-.185297E-06
quench:  g(F)=  0.000E+00 g(S)=  0.000E+00 dE (1.order)= 0.000E+00
 bond charge predicted
       N       E                     dE             d eps       ncg     rms          rms(c)
DAV:   1    -0.338640300709E+03   -0.18915E-06   -0.30870E-05  3584   0.446E-03    0.190E-03
DAV:   2    -0.338640301185E+03   -0.47605E-06   -0.99654E-07  2272   0.381E-03    0.809E-03
DAV:   3    -0.338640300735E+03    0.45048E-06   -0.54925E-07  2120   0.342E-03    0.273E-03
DAV:   4    -0.338640300727E+03    0.73924E-08   -0.11695E-07  2040   0.142E-03    0.220E-03
DAV:   5    -0.338640300711E+03    0.16575E-07   -0.64617E-08  2040   0.109E-03
 710 F= -.33864030E+03 E0= -.33853778E+03  d E =-.210195E-06
quench:  g(F)=  0.000E+00 g(S)=  0.000E+00 dE (1.order)= 0.000E+00
 bond charge predicted
       N       E                     dE             d eps       ncg     rms          rms(c)
DAV:   1    -0.338640300928E+03   -0.20098E-06   -0.30871E-05  3576   0.446E-03    0.193E-03
DAV:   2    -0.338640301466E+03   -0.53802E-06   -0.10181E-06  2272   0.388E-03    0.828E-03
DAV:   3    -0.338640300957E+03    0.50904E-06   -0.59612E-07  2112   0.345E-03    0.251E-03
DAV:   4    -0.338640300958E+03   -0.24738E-09   -0.12078E-07  2048   0.140E-03    0.237E-03
DAV:   5    -0.338640300937E+03    0.20489E-07   -0.62542E-08  2040   0.114E-03
 711 F= -.33864030E+03 E0= -.33853778E+03  d E =-.226290E-06
quench:  g(F)=  0.000E+00 g(S)=  0.000E+00 dE (1.order)= 0.000E+00
 reached required accuracy - stopping structural energy minimisation
