  67  67   0   0
  0.3503968E+02  0.1114491E-08  0.1114491E-08  0.2182484E-08  0.0000000E+00
  1.000000000000000E-004
  CAR 
 Si-Diamond                              
      9.10212246    -24.45720727  301      0.81687673      1.00000000
    -24.457  0.0000E+00  0.0000E+00
    -24.345  0.0000E+00  0.0000E+00
    -24.233  0.0000E+00  0.0000E+00
    -24.122 -0.3470E-31 -0.3882E-32
    -24.010 -0.2616E-27 -0.2927E-28
    -23.898 -0.1049E-23 -0.1174E-24
    -23.786 -0.2237E-20 -0.2504E-21
    -23.674 -0.2533E-17 -0.2836E-18
    -23.562 -0.1472E-14 -0.1649E-15
    -23.450 -0.4636E-12 -0.5203E-13
    -23.339 -0.7681E-10 -0.8644E-11
    -23.227 -0.6644E-08 -0.7519E-09
    -23.115 -0.2966E-06 -0.3393E-07
    -23.003 -0.6686E-05 -0.7819E-06
    -22.891 -0.7241E-04 -0.8882E-05
    -22.779 -0.3240E-03 -0.4513E-04
    -22.667 -0.1273E-03 -0.5936E-04
    -22.556  0.2930E-02  0.2684E-03
    -22.444  0.7553E-02  0.1113E-02
    -22.332  0.6702E-02  0.1863E-02
    -22.220  0.1854E-02  0.2070E-02
    -22.108 -0.3322E-03  0.2033E-02
    -21.996 -0.2499E-03  0.2005E-02
    -21.884 -0.4392E-04  0.2000E-02
    -21.772 -0.3376E-05  0.2000E-02
    -21.661 -0.1267E-06  0.2000E-02
    -21.549 -0.2419E-08  0.2000E-02
    -21.437 -0.2390E-10  0.2000E-02
    -21.325 -0.1236E-12  0.2000E-02
    -21.213 -0.3366E-15  0.2000E-02
    -21.101  0.0000E+00  0.2000E-02
    -20.989  0.0000E+00  0.2000E-02
    -20.878  0.0000E+00  0.2000E-02
    -20.766  0.0000E+00  0.2000E-02
    -20.654  0.0000E+00  0.2000E-02
    -20.542  0.0000E+00  0.2000E-02
    -20.430  0.0000E+00  0.2000E-02
    -20.318  0.0000E+00  0.2000E-02
    -20.206  0.0000E+00  0.2000E-02
    -20.094  0.0000E+00  0.2000E-02
    -19.983  0.0000E+00  0.2000E-02
    -19.871  0.0000E+00  0.2000E-02
    -19.759  0.0000E+00  0.2000E-02
    -19.647  0.0000E+00  0.2000E-02
    -19.535  0.0000E+00  0.2000E-02
    -19.423  0.0000E+00  0.2000E-02
    -19.311  0.0000E+00  0.2000E-02
    -19.200 -0.1532E-30  0.2000E-02
    -19.088 -0.1043E-26  0.2000E-02
    -18.976 -0.3777E-23  0.2000E-02
    -18.864 -0.7272E-20  0.2000E-02
    -18.752 -0.7432E-17  0.2000E-02
    -18.640 -0.3892E-14  0.2000E-02
    -18.528 -0.1106E-11  0.2000E-02
    -18.417 -0.1650E-09  0.2000E-02
    -18.305 -0.1284E-07  0.2000E-02
    -18.193 -0.5143E-06  0.2000E-02
    -18.081 -0.1035E-04  0.1999E-02
    -17.969 -0.9863E-04  0.1988E-02
    -17.857 -0.3684E-03  0.1947E-02
    -17.745  0.1093E-03  0.1959E-02
    -17.633  0.3738E-02  0.2377E-02
    -17.522  0.7920E-02  0.3263E-02
    -17.410  0.5974E-02  0.3931E-02
    -17.298  0.1242E-02  0.4070E-02
    -17.186 -0.3928E-03  0.4026E-02
    -17.074 -0.2016E-03  0.4004E-02
    -16.962 -0.3055E-04  0.4000E-02
    -16.850 -0.2083E-05  0.4000E-02
    -16.739 -0.6995E-07  0.4000E-02
    -16.627 -0.1199E-08  0.4000E-02
    -16.515 -0.1067E-10  0.4000E-02
    -16.403 -0.4971E-13  0.4000E-02
    -16.291 -0.1231E-15  0.4000E-02
    -16.179  0.0000E+00  0.4000E-02
    -16.067  0.0000E+00  0.4000E-02
    -15.956  0.0000E+00  0.4000E-02
    -15.844  0.0000E+00  0.4000E-02
    -15.732  0.0000E+00  0.4000E-02
    -15.620  0.0000E+00  0.4000E-02
    -15.508  0.0000E+00  0.4000E-02
    -15.396  0.0000E+00  0.4000E-02
    -15.284  0.0000E+00  0.4000E-02
    -15.172  0.0000E+00  0.4000E-02
    -15.061  0.0000E+00  0.4000E-02
    -14.949  0.0000E+00  0.4000E-02
    -14.837  0.0000E+00  0.4000E-02
    -14.725  0.0000E+00  0.4000E-02
    -14.613  0.0000E+00  0.4000E-02
    -14.501  0.0000E+00  0.4000E-02
    -14.389  0.0000E+00  0.4000E-02
    -14.278  0.0000E+00  0.4000E-02
    -14.166  0.0000E+00  0.4000E-02
    -14.054  0.0000E+00  0.4000E-02
    -13.942  0.0000E+00  0.4000E-02
    -13.830  0.0000E+00  0.4000E-02
    -13.718  0.0000E+00  0.4000E-02
    -13.606  0.0000E+00  0.4000E-02
    -13.494  0.0000E+00  0.4000E-02
    -13.383  0.0000E+00  0.4000E-02
    -13.271  0.0000E+00  0.4000E-02
    -13.159  0.0000E+00  0.4000E-02
    -13.047  0.0000E+00  0.4000E-02
    -12.935  0.0000E+00  0.4000E-02
    -12.823  0.0000E+00  0.4000E-02
    -12.711  0.0000E+00  0.4000E-02
    -12.600  0.0000E+00  0.4000E-02
    -12.488  0.0000E+00  0.4000E-02
    -12.376  0.0000E+00  0.4000E-02
    -12.264  0.0000E+00  0.4000E-02
    -12.152  0.0000E+00  0.4000E-02
    -12.040  0.0000E+00  0.4000E-02
    -11.928  0.0000E+00  0.4000E-02
    -11.817  0.0000E+00  0.4000E-02
    -11.705  0.0000E+00  0.4000E-02
    -11.593  0.0000E+00  0.4000E-02
    -11.481  0.0000E+00  0.4000E-02
    -11.369  0.0000E+00  0.4000E-02
    -11.257  0.0000E+00  0.4000E-02
    -11.145 -0.2212E-30  0.4000E-02
    -11.033 -0.1468E-26  0.4000E-02
    -10.922 -0.5183E-23  0.4000E-02
    -10.810 -0.9728E-20  0.4000E-02
    -10.698 -0.9692E-17  0.4000E-02
    -10.586 -0.4946E-14  0.4000E-02
    -10.474 -0.1369E-11  0.4000E-02
    -10.362 -0.1991E-09  0.4000E-02
    -10.250 -0.1509E-07  0.4000E-02
    -10.139 -0.5882E-06  0.4000E-02
    -10.027 -0.1150E-04  0.3999E-02
     -9.915 -0.1061E-03  0.3987E-02
     -9.803 -0.3777E-03  0.3945E-02
     -9.691  0.1824E-03  0.3965E-02
     -9.579  0.3945E-02  0.4406E-02
     -9.467  0.7982E-02  0.5299E-02
     -9.356  0.5779E-02  0.5946E-02
     -9.244  0.1106E-02  0.6069E-02
     -9.132 -0.4004E-03  0.6025E-02
     -9.020 -0.1903E-03  0.6003E-02
     -8.908 -0.2782E-04  0.6000E-02
     -8.796 -0.1841E-05  0.6000E-02
     -8.684 -0.6017E-07  0.6000E-02
     -8.572 -0.1004E-08  0.6000E-02
     -8.461 -0.8704E-11  0.6000E-02
     -8.349 -0.3952E-13  0.6000E-02
     -8.237 -0.9528E-16  0.6000E-02
     -8.125  0.0000E+00  0.6000E-02
     -8.013  0.0000E+00  0.6000E-02
     -7.901  0.0000E+00  0.6000E-02
     -7.789 -0.3885E-32  0.6000E-02
     -7.678 -0.3554E-28  0.6000E-02
     -7.566 -0.1731E-24  0.6000E-02
     -7.454 -0.4482E-21  0.6000E-02
     -7.342 -0.6167E-18  0.6000E-02
     -7.230 -0.4363E-15  0.6000E-02
     -7.118 -0.1675E-12  0.6000E-02
     -7.006 -0.3386E-10  0.6000E-02
     -6.894 -0.3583E-08  0.6000E-02
     -6.783 -0.1966E-06  0.6000E-02
     -6.671 -0.5492E-05  0.5999E-02
     -6.559 -0.7525E-04  0.5991E-02
     -6.447 -0.4569E-03  0.5940E-02
     -6.335 -0.7295E-03  0.5858E-02
     -6.223  0.3152E-02  0.6211E-02
     -6.111  0.1279E-01  0.7642E-02
     -6.000  0.1546E-01  0.9372E-02
     -5.888  0.6513E-02  0.1010E-01
     -5.776 -0.2798E-03  0.1007E-01
     -5.664 -0.1081E-02  0.9948E-02
     -5.552  0.8825E-03  0.1005E-01
     -5.440  0.6160E-02  0.1074E-01
     -5.328  0.1128E-01  0.1200E-01
     -5.217  0.9763E-02  0.1309E-01
     -5.105  0.3777E-02  0.1351E-01
     -4.993  0.1763E-02  0.1371E-01
     -4.881  0.6512E-02  0.1444E-01
     -4.769  0.1249E-01  0.1584E-01
     -4.657  0.1457E-01  0.1746E-01
     -4.545  0.1268E-01  0.1888E-01
     -4.433  0.9749E-02  0.1997E-01
     -4.322  0.1276E-01  0.2140E-01
     -4.210  0.2067E-01  0.2371E-01
     -4.098  0.1895E-01  0.2583E-01
     -3.986  0.1246E-01  0.2723E-01
     -3.874  0.2192E-01  0.2968E-01
     -3.762  0.5057E-01  0.3534E-01
     -3.650  0.8169E-01  0.4447E-01
     -3.539  0.9634E-01  0.5525E-01
     -3.427  0.1046E+00  0.6696E-01
     -3.315  0.1309E+00  0.8160E-01
     -3.203  0.1526E+00  0.9867E-01
     -3.091  0.1395E+00  0.1143E+00
     -2.979  0.1139E+00  0.1270E+00
     -2.867  0.1079E+00  0.1391E+00
     -2.756  0.1131E+00  0.1517E+00
     -2.644  0.1147E+00  0.1646E+00
     -2.532  0.1124E+00  0.1771E+00
     -2.420  0.1049E+00  0.1889E+00
     -2.308  0.1008E+00  0.2002E+00
     -2.196  0.1018E+00  0.2115E+00
     -2.084  0.1021E+00  0.2230E+00
     -1.972  0.1102E+00  0.2353E+00
     -1.861  0.1229E+00  0.2490E+00
     -1.749  0.1367E+00  0.2643E+00
     -1.637  0.1503E+00  0.2811E+00
     -1.525  0.1645E+00  0.2995E+00
     -1.413  0.1868E+00  0.3204E+00
     -1.301  0.1982E+00  0.3426E+00
     -1.189  0.1773E+00  0.3624E+00
     -1.078  0.1442E+00  0.3786E+00
     -0.966  0.1333E+00  0.3935E+00
     -0.854  0.1277E+00  0.4078E+00
     -0.742  0.1200E+00  0.4212E+00
     -0.630  0.1330E+00  0.4361E+00
     -0.518  0.1482E+00  0.4526E+00
     -0.406  0.1457E+00  0.4689E+00
     -0.294  0.1270E+00  0.4831E+00
     -0.183  0.1171E+00  0.4962E+00
     -0.071  0.1327E+00  0.5111E+00
      0.041  0.1538E+00  0.5283E+00
      0.153  0.1625E+00  0.5465E+00
      0.265  0.1515E+00  0.5634E+00
      0.377  0.1286E+00  0.5778E+00
      0.489  0.1270E+00  0.5920E+00
      0.600  0.1694E+00  0.6110E+00
      0.712  0.2134E+00  0.6348E+00
      0.824  0.2008E+00  0.6573E+00
      0.936  0.1431E+00  0.6733E+00
      1.048  0.7986E-01  0.6822E+00
      1.160  0.3623E-01  0.6863E+00
      1.272  0.1604E-01  0.6881E+00
      1.383  0.8170E-02  0.6890E+00
      1.495  0.9483E-02  0.6901E+00
      1.607  0.2167E-01  0.6925E+00
      1.719  0.3045E-01  0.6959E+00
      1.831  0.2419E-01  0.6986E+00
      1.943  0.1600E-01  0.7004E+00
      2.055  0.1929E-01  0.7025E+00
      2.167  0.2284E-01  0.7051E+00
      2.278  0.2014E-01  0.7073E+00
      2.390  0.1934E-01  0.7095E+00
      2.502  0.1754E-01  0.7115E+00
      2.614  0.1255E-01  0.7129E+00
      2.726  0.1022E-01  0.7140E+00
      2.838  0.1182E-01  0.7153E+00
      2.950  0.1595E-01  0.7171E+00
      3.061  0.2013E-01  0.7194E+00
      3.173  0.2525E-01  0.7222E+00
      3.285  0.2906E-01  0.7255E+00
      3.397  0.2701E-01  0.7285E+00
      3.509  0.2416E-01  0.7312E+00
      3.621  0.2327E-01  0.7338E+00
      3.733  0.2526E-01  0.7366E+00
      3.844  0.3105E-01  0.7401E+00
      3.956  0.3142E-01  0.7436E+00
      4.068  0.2289E-01  0.7462E+00
      4.180  0.1239E-01  0.7475E+00
      4.292  0.6587E-02  0.7483E+00
      4.404  0.8487E-02  0.7492E+00
      4.516  0.1657E-01  0.7511E+00
      4.628  0.2576E-01  0.7540E+00
      4.739  0.2619E-01  0.7569E+00
      4.851  0.1612E-01  0.7587E+00
      4.963  0.1178E-01  0.7600E+00
      5.075  0.2129E-01  0.7624E+00
      5.187  0.2895E-01  0.7656E+00
      5.299  0.2455E-01  0.7684E+00
      5.411  0.1426E-01  0.7700E+00
      5.522  0.9879E-02  0.7711E+00
      5.634  0.2105E-01  0.7734E+00
      5.746  0.3526E-01  0.7774E+00
      5.858  0.3371E-01  0.7811E+00
      5.970  0.2447E-01  0.7839E+00
      6.082  0.1983E-01  0.7861E+00
      6.194  0.1638E-01  0.7879E+00
      6.306  0.1165E-01  0.7892E+00
      6.417  0.1014E-01  0.7904E+00
      6.529  0.1345E-01  0.7919E+00
      6.641  0.2052E-01  0.7942E+00
      6.753  0.2404E-01  0.7969E+00
      6.865  0.1778E-01  0.7988E+00
      6.977  0.7536E-02  0.7997E+00
      7.089  0.1919E-02  0.7999E+00
      7.200  0.7696E-03  0.8000E+00
      7.312  0.2266E-03  0.8000E+00
      7.424 -0.8856E-04  0.8000E+00
      7.536 -0.6068E-04  0.8000E+00
      7.648 -0.1160E-04  0.8000E+00
      7.760 -0.9848E-06  0.8000E+00
      7.872 -0.4117E-07  0.8000E+00
      7.983 -0.8812E-09  0.8000E+00
      8.095 -0.9830E-11  0.8000E+00
      8.207 -0.5770E-13  0.8000E+00
      8.319 -0.1791E-15  0.8000E+00
      8.431 -0.4411E-18  0.8000E+00
      8.543  0.0000E+00  0.8000E+00
      8.655  0.0000E+00  0.8000E+00
      8.767  0.0000E+00  0.8000E+00
      8.878  0.0000E+00  0.8000E+00
      8.990  0.0000E+00  0.8000E+00
      9.102  0.0000E+00  0.8000E+00
