   67   67 1000    1
  0.3503968E+02  0.1114491E-08  0.1114491E-08  0.2182484E-08  0.0000000E+00
  1.000000000000000E-004
  CAR 
 Si-Diamond                              
    656      5    400
 
  0.0000000E+00  0.0000000E+00  0.0000000E+00  0.1111111E+00
    1      -22.456951   1.000000
    2      -17.553049   1.000000
    3       -9.503344   1.000000
    4       -6.091981   1.000000
    5       -6.087940   1.000000
    6       -5.504058   1.000000
    7       -5.356648   1.000000
    8       -4.755208   1.000000
    9       -4.602446   1.000000
   10       -4.383348   1.000000
   11       -4.303125   1.000000
   12       -4.026651   1.000000
   13       -4.014495   1.000000
   14       -4.007856   1.000000
   15       -4.002612   1.000000
   16       -3.999709   1.000000
   17       -3.971833   1.000000
   18       -3.933831   1.000000
   19       -3.918268   1.000000
   20       -3.912074   1.000000
   21       -3.877781   1.000000
   22       -3.806571   1.000000
   23       -3.796691   1.000000
   24       -3.793335   1.000000
   25       -3.762624   1.000000
   26       -3.632599   1.000000
   27       -3.622192   1.000000
   28       -3.621239   1.000000
   29       -3.470478   1.000000
   30       -3.452992   1.000000
   31       -3.441272   1.000000
   32       -3.436562   1.000000
   33       -3.431039   1.000000
   34       -3.423288   1.000000
   35       -3.409760   1.000000
   36       -3.388326   1.000000
   37       -3.351733   1.000000
   38       -3.290308   1.000000
   39       -3.241409   1.000000
   40       -3.237176   1.000000
   41       -3.226538   1.000000
   42       -3.218274   1.000000
   43       -3.211643   1.000000
   44       -3.207788   1.000000
   45       -3.206676   1.000000
   46       -3.202348   1.000000
   47       -3.199857   1.000000
   48       -3.191204   1.000000
   49       -3.187564   1.000000
   50       -3.186001   1.000000
   51       -3.165511   1.000000
   52       -3.155897   1.000000
   53       -3.143621   1.000000
   54       -3.134258   1.000000
   55       -3.128975   1.000000
   56       -3.101792   1.000000
   57       -3.084311   1.000000
   58       -3.067056   1.000000
   59       -2.959944   1.000000
   60       -2.952901   1.000000
   61       -2.934495   1.000000
   62       -2.923055   1.000000
   63       -2.919838   1.000000
   64       -2.910577   1.000000
   65       -2.862573   1.000000
   66       -2.851553   1.000000
   67       -2.823645   1.000000
   68       -2.818461   1.000000
   69       -2.816511   1.000000
   70       -2.803385   1.000000
   71       -2.791066   1.000000
   72       -2.776063   1.000000
   73       -2.757117   1.000000
   74       -2.752835   1.000000
   75       -2.747980   1.000000
   76       -2.745858   1.000000
   77       -2.737746   1.000000
   78       -2.692297   1.000000
   79       -2.669046   1.000000
   80       -2.660470   1.000000
   81       -2.639084   1.000000
   82       -2.635223   1.000000
   83       -2.630588   1.000000
   84       -2.616136   1.000000
   85       -2.565278   1.000000
   86       -2.506913   1.000000
   87       -2.472984   1.000000
   88       -2.465203   1.000000
   89       -2.447501   1.000000
   90       -2.434515   1.000000
   91       -2.417610   1.000000
   92       -2.400192   1.000000
   93       -2.379974   1.000000
   94       -2.367627   1.000000
   95       -2.355498   1.000000
   96       -2.344711   1.000000
   97       -2.336525   1.000000
   98       -2.330163   1.000000
   99       -2.313485   1.000000
  100       -2.306802   1.000000
  101       -2.290781   1.000000
  102       -2.283686   1.000000
  103       -2.282679   1.000000
  104       -2.280418   1.000000
  105       -2.274143   1.000000
  106       -2.266733   1.000000
  107       -2.254222   1.000000
  108       -2.229080   1.000000
  109       -2.202530   1.000000
  110       -2.121659   1.000000
  111       -2.077221   1.000000
  112       -2.072244   1.000000
  113       -2.059327   1.000000
  114       -2.056034   1.000000
  115       -2.051579   1.000000
  116       -2.046653   1.000000
  117       -2.037138   1.000000
  118       -1.978843   1.000000
  119       -1.974320   1.000000
  120       -1.946790   1.000000
  121       -1.937151   1.000000
  122       -1.933382   1.000000
  123       -1.930910   1.000000
  124       -1.926211   1.000000
  125       -1.921256   1.000000
  126       -1.885647   1.000000
  127       -1.862831   1.000000
  128       -1.839165   1.000000
  129       -1.760356   1.000000
  130       -1.754270   1.000000
  131       -1.742833   1.000000
  132       -1.735069   1.000000
  133       -1.729918   1.000000
  134       -1.725596   1.000000
  135       -1.723017   1.000000
  136       -1.718265   1.000000
  137       -1.716357   1.000000
  138       -1.713395   1.000000
  139       -1.708939   1.000000
  140       -1.696719   1.000000
  141       -1.685411   1.000000
  142       -1.671536   1.000000
  143       -1.642003   1.000000
  144       -1.632403   1.000000
  145       -1.630301   1.000000
  146       -1.563327   1.000000
  147       -1.549655   1.000000
  148       -1.531117   1.000000
  149       -1.522940   1.000000
  150       -1.507683   1.000000
  151       -1.502314   1.000000
  152       -1.498819   1.000000
  153       -1.490666   1.000000
  154       -1.477857   1.000000
  155       -1.472229   1.000000
  156       -1.430624   1.000000
  157       -1.427055   1.000000
  158       -1.401823   1.000000
  159       -1.367812   1.000000
  160       -1.362032   1.000000
  161       -1.347819   1.000000
  162       -1.308458   1.000000
  163       -1.302821   1.000000
  164       -1.297589   1.000000
  165       -1.283560   1.000000
  166       -1.268773   1.000000
  167       -1.252024   1.000000
  168       -1.251045   1.000000
  169       -1.235087   1.000000
  170       -1.219915   1.000000
  171       -1.217168   1.000000
  172       -1.214481   1.000000
  173       -1.212692   1.000000
  174       -1.211363   1.000000
  175       -1.205196   1.000000
  176       -1.200985   1.000000
  177       -1.196264   1.000000
  178       -1.195551   1.000000
  179       -1.191607   1.000000
  180       -1.187945   1.000000
  181       -1.182973   1.000000
  182       -1.177731   1.000000
  183       -1.175779   1.000000
  184       -1.173143   1.000000
  185       -1.171624   1.000000
  186       -1.167397   1.000000
  187       -1.161324   1.000000
  188       -1.151222   1.000000
  189       -1.144701   1.000000
  190       -1.135695   1.000000
  191       -1.127838   1.000000
  192       -1.116788   1.000000
  193       -1.077110   1.000000
  194       -1.058408   1.000000
  195       -1.056205   1.000000
  196       -1.041707   1.000000
  197       -1.031274   1.000000
  198       -1.025493   1.000000
  199       -0.960037   1.000000
  200       -0.944137   1.000000
  201       -0.930593   1.000000
  202       -0.924593   1.000000
  203       -0.898374   1.000000
  204       -0.894255   1.000000
  205       -0.849475   1.000000
  206       -0.835926   1.000000
  207       -0.821836   1.000000
  208       -0.786187   1.000000
  209       -0.772919   1.000000
  210       -0.764736   1.000000
  211       -0.748601   1.000000
  212       -0.746616   1.000000
  213       -0.745544   1.000000
  214       -0.738591   1.000000
  215       -0.731784   1.000000
  216       -0.727686   1.000000
  217       -0.723886   1.000000
  218       -0.718206   1.000000
  219       -0.712154   1.000000
  220       -0.710083   1.000000
  221       -0.705848   1.000000
  222       -0.673019   1.000000
  223       -0.668474   1.000000
  224       -0.602273   1.000000
  225       -0.593714   1.000000
  226       -0.581966   1.000000
  227       -0.575040   1.000000
  228       -0.572571   1.000000
  229       -0.561076   1.000000
  230       -0.556081   1.000000
  231       -0.529784   1.000000
  232       -0.515260   1.000000
  233       -0.500528   1.000000
  234       -0.491432   1.000000
  235       -0.467092   1.000000
  236       -0.456680   1.000000
  237       -0.438934   1.000000
  238       -0.422059   1.000000
  239       -0.415209   1.000000
  240       -0.383995   1.000000
  241       -0.381825   1.000000
  242       -0.350144   1.000000
  243       -0.347192   1.000000
  244       -0.345151   1.000000
  245       -0.334673   1.000000
  246       -0.330321   1.000000
  247       -0.319248   1.000000
  248       -0.270858   1.000000
  249       -0.267763   1.000000
  250       -0.263305   1.000000
  251       -0.245742   1.000000
  252       -0.223600   1.000000
  253       -0.208519   1.000000
  254       -0.202375   1.000000
  255       -0.197496   1.000000
  256       -0.191665   1.000000
  257       -0.177800   1.000000
  258       -0.164903   1.000000
  259       -0.160593   1.000000
  260       -0.157650   1.000000
  261       -0.147974   1.000000
  262       -0.144461   1.000000
  263       -0.142014   1.000000
  264       -0.139403   1.000000
  265       -0.095567   1.000000
  266       -0.061512   1.000000
  267       -0.054970   1.000000
  268       -0.050276   1.000000
  269       -0.003988   1.000000
  270       -0.000980   1.000000
  271        0.005306   1.000000
  272        0.009845   1.000000
  273        0.028906   1.000000
  274        0.038246   1.000000
  275        0.041947   1.000000
  276        0.050469   1.000000
  277        0.058841   1.000001
  278        0.064629   1.000001
  279        0.076510   1.000001
  280        0.092350   1.000002
  281        0.119388   1.000005
  282        0.128221   1.000006
  283        0.134858   1.000008
  284        0.140128   1.000009
  285        0.145077   1.000011
  286        0.198744   1.000056
  287        0.227417   1.000125
  288        0.306060   1.000906
  289        0.323905   1.001353
  290        0.347042   1.002212
  291        0.363295   1.003065
  292        0.372603   1.003668
  293        0.398577   1.005883
  294        0.425294   1.009137
  295        0.426548   1.009317
  296        0.450917   1.013312
  297        0.458718   1.014788
  298        0.460788   1.015195
  299        0.481768   1.019625
  300        0.542678   1.032778
  301        0.583075   1.034942
  302        0.590995   1.033869
  303        0.602964   1.030922
  304        0.639229   1.009307
  305        0.651576   0.996521
  306        0.674187   0.964480
  307        0.677648   0.958520
  308        0.699144   0.914862
  309        0.732242   0.825037
  310        0.739298   0.802484
  311        0.756043   0.744681
  312        0.765686   0.708939
  313        0.777183   0.664346
  314        0.785454   0.631157
  315        0.792560   0.602056
  316        0.798165   0.578792
  317        0.801246   0.565917
  318        0.802993   0.558592
  319        0.806959   0.541911
  320        0.809073   0.532993
  321        0.821713   0.479541
  322        0.825812   0.462233
  323        0.830950   0.440614
  324        0.837550   0.413040
  325        0.868567   0.289172
  326        0.870249   0.282831
  327        0.872570   0.274168
  328        0.936721   0.080336
  329        0.961784   0.031852
  330        0.965745   0.025593
  331        0.967849   0.022419
  332        0.979291   0.006928
  333        0.981611   0.004142
  334        0.987180  -0.002078
  335        0.992401  -0.007327
  336        0.998187  -0.012515
  337        1.045179  -0.034265
  338        1.081685  -0.034135
  339        1.091455  -0.032716
  340        1.140700  -0.022184
  341        1.143992  -0.021429
  342        1.144348  -0.021348
  343        1.162424  -0.017355
  344        1.194628  -0.011261
  345        1.486051  -0.000012
  346        1.667685  -0.000000
  347        1.684053  -0.000000
  348        1.728207  -0.000000
  349        1.853327  -0.000000
  350        2.027451  -0.000000
  351        2.054882  -0.000000
  352        2.584327  -0.000000
  353        2.689663  -0.000000
  354        2.774476  -0.000000
  355        2.902725  -0.000000
  356        3.153771  -0.000000
  357        3.185451  -0.000000
  358        3.267058  -0.000000
  359        3.279117  -0.000000
  360        3.291014  -0.000000
  361        3.322570  -0.000000
  362        3.375113  -0.000000
  363        3.381941  -0.000000
  364        3.794924  -0.000000
  365        3.803028  -0.000000
  366        3.806493  -0.000000
  367        3.826819  -0.000000
  368        3.848686  -0.000000
  369        3.862596  -0.000000
  370        3.877686  -0.000000
  371        3.903554  -0.000000
  372        3.925530  -0.000000
  373        3.966339  -0.000000
  374        4.034515  -0.000000
  375        4.127089  -0.000000
  376        4.148680  -0.000000
  377        4.293450  -0.000000
  378        4.350101  -0.000000
  379        4.529839  -0.000000
  380        4.544022  -0.000000
  381        4.559965  -0.000000
  382        4.633263  -0.000000
  383        4.671991  -0.000000
  384        4.811288  -0.000000
  385        5.134661  -0.000000
  386        5.201072  -0.000000
  387        5.221780  -0.000000
  388        5.251480  -0.000000
  389        5.314605  -0.000000
  390        5.481355  -0.000000
  391        5.667168  -0.000000
  392        5.673728  -0.000000
  393        5.702009  -0.000000
  394        5.739126  -0.000000
  395        5.928907  -0.000000
  396        6.047032  -0.000000
  397        6.175316  -0.000000
  398        6.196987  -0.000000
  399        7.058170   0.000000
  400        7.102122   0.000000
 
  0.3333333E+00 -0.3736539E-16  0.0000000E+00  0.2222222E+00
    1      -22.457041   1.000000
    2      -17.553074   1.000000
    3       -9.503357   1.000000
    4       -6.092109   1.000000
    5       -6.087974   1.000000
    6       -5.396813   1.000000
    7       -5.257575   1.000000
    8       -4.798121   1.000000
    9       -4.646766   1.000000
   10       -4.526560   1.000000
   11       -4.287649   1.000000
   12       -4.224062   1.000000
   13       -4.187700   1.000000
   14       -4.179069   1.000000
   15       -3.826765   1.000000
   16       -3.789845   1.000000
   17       -3.773941   1.000000
   18       -3.759207   1.000000
   19       -3.744326   1.000000
   20       -3.735898   1.000000
   21       -3.706537   1.000000
   22       -3.665547   1.000000
   23       -3.662134   1.000000
   24       -3.652287   1.000000
   25       -3.646321   1.000000
   26       -3.613834   1.000000
   27       -3.594053   1.000000
   28       -3.541024   1.000000
   29       -3.530788   1.000000
   30       -3.524844   1.000000
   31       -3.447421   1.000000
   32       -3.441867   1.000000
   33       -3.402044   1.000000
   34       -3.386970   1.000000
   35       -3.382140   1.000000
   36       -3.365594   1.000000
   37       -3.346688   1.000000
   38       -3.337125   1.000000
   39       -3.322852   1.000000
   40       -3.317750   1.000000
   41       -3.311869   1.000000
   42       -3.289989   1.000000
   43       -3.287230   1.000000
   44       -3.267771   1.000000
   45       -3.248539   1.000000
   46       -3.236196   1.000000
   47       -3.230079   1.000000
   48       -3.223702   1.000000
   49       -3.217718   1.000000
   50       -3.213916   1.000000
   51       -3.208220   1.000000
   52       -3.189739   1.000000
   53       -3.176701   1.000000
   54       -3.160765   1.000000
   55       -3.139027   1.000000
   56       -3.135698   1.000000
   57       -3.109783   1.000000
   58       -3.103165   1.000000
   59       -3.071175   1.000000
   60       -3.057906   1.000000
   61       -3.045400   1.000000
   62       -3.039473   1.000000
   63       -3.032265   1.000000
   64       -3.022440   1.000000
   65       -2.965442   1.000000
   66       -2.926125   1.000000
   67       -2.910909   1.000000
   68       -2.901406   1.000000
   69       -2.884259   1.000000
   70       -2.869253   1.000000
   71       -2.856220   1.000000
   72       -2.845156   1.000000
   73       -2.828193   1.000000
   74       -2.814926   1.000000
   75       -2.794609   1.000000
   76       -2.753990   1.000000
   77       -2.737549   1.000000
   78       -2.731595   1.000000
   79       -2.699529   1.000000
   80       -2.679755   1.000000
   81       -2.668926   1.000000
   82       -2.660070   1.000000
   83       -2.628208   1.000000
   84       -2.614232   1.000000
   85       -2.581585   1.000000
   86       -2.555173   1.000000
   87       -2.550310   1.000000
   88       -2.534622   1.000000
   89       -2.511758   1.000000
   90       -2.506489   1.000000
   91       -2.490376   1.000000
   92       -2.483124   1.000000
   93       -2.475360   1.000000
   94       -2.473462   1.000000
   95       -2.442502   1.000000
   96       -2.417075   1.000000
   97       -2.366510   1.000000
   98       -2.344939   1.000000
   99       -2.316692   1.000000
  100       -2.304976   1.000000
  101       -2.298478   1.000000
  102       -2.283025   1.000000
  103       -2.274780   1.000000
  104       -2.264893   1.000000
  105       -2.244756   1.000000
  106       -2.215463   1.000000
  107       -2.203103   1.000000
  108       -2.193314   1.000000
  109       -2.148693   1.000000
  110       -2.138959   1.000000
  111       -2.111822   1.000000
  112       -2.074185   1.000000
  113       -2.049360   1.000000
  114       -2.044836   1.000000
  115       -1.998779   1.000000
  116       -1.986561   1.000000
  117       -1.967220   1.000000
  118       -1.948623   1.000000
  119       -1.932556   1.000000
  120       -1.917314   1.000000
  121       -1.910004   1.000000
  122       -1.905683   1.000000
  123       -1.896850   1.000000
  124       -1.868159   1.000000
  125       -1.855704   1.000000
  126       -1.845696   1.000000
  127       -1.844376   1.000000
  128       -1.829648   1.000000
  129       -1.820690   1.000000
  130       -1.805447   1.000000
  131       -1.763906   1.000000
  132       -1.751661   1.000000
  133       -1.745941   1.000000
  134       -1.730872   1.000000
  135       -1.723315   1.000000
  136       -1.703643   1.000000
  137       -1.694186   1.000000
  138       -1.677256   1.000000
  139       -1.658725   1.000000
  140       -1.651584   1.000000
  141       -1.641423   1.000000
  142       -1.631587   1.000000
  143       -1.618298   1.000000
  144       -1.594306   1.000000
  145       -1.585920   1.000000
  146       -1.580703   1.000000
  147       -1.559848   1.000000
  148       -1.549797   1.000000
  149       -1.527541   1.000000
  150       -1.521874   1.000000
  151       -1.497894   1.000000
  152       -1.493434   1.000000
  153       -1.486425   1.000000
  154       -1.476220   1.000000
  155       -1.458759   1.000000
  156       -1.453397   1.000000
  157       -1.444077   1.000000
  158       -1.441554   1.000000
  159       -1.434123   1.000000
  160       -1.427857   1.000000
  161       -1.423413   1.000000
  162       -1.410649   1.000000
  163       -1.402966   1.000000
  164       -1.388026   1.000000
  165       -1.381369   1.000000
  166       -1.373126   1.000000
  167       -1.360380   1.000000
  168       -1.347055   1.000000
  169       -1.333514   1.000000
  170       -1.328478   1.000000
  171       -1.312322   1.000000
  172       -1.305031   1.000000
  173       -1.296732   1.000000
  174       -1.294828   1.000000
  175       -1.274149   1.000000
  176       -1.270493   1.000000
  177       -1.246399   1.000000
  178       -1.220003   1.000000
  179       -1.214575   1.000000
  180       -1.209572   1.000000
  181       -1.204855   1.000000
  182       -1.193507   1.000000
  183       -1.172679   1.000000
  184       -1.167510   1.000000
  185       -1.147013   1.000000
  186       -1.124577   1.000000
  187       -1.101597   1.000000
  188       -1.063539   1.000000
  189       -1.049227   1.000000
  190       -1.035789   1.000000
  191       -1.019943   1.000000
  192       -0.998830   1.000000
  193       -0.991435   1.000000
  194       -0.982537   1.000000
  195       -0.970618   1.000000
  196       -0.963311   1.000000
  197       -0.947656   1.000000
  198       -0.944064   1.000000
  199       -0.933381   1.000000
  200       -0.928360   1.000000
  201       -0.919199   1.000000
  202       -0.908346   1.000000
  203       -0.890665   1.000000
  204       -0.886439   1.000000
  205       -0.880114   1.000000
  206       -0.868690   1.000000
  207       -0.830320   1.000000
  208       -0.803721   1.000000
  209       -0.786147   1.000000
  210       -0.756634   1.000000
  211       -0.742921   1.000000
  212       -0.717442   1.000000
  213       -0.704450   1.000000
  214       -0.685471   1.000000
  215       -0.678912   1.000000
  216       -0.661609   1.000000
  217       -0.658170   1.000000
  218       -0.653781   1.000000
  219       -0.647001   1.000000
  220       -0.643776   1.000000
  221       -0.630914   1.000000
  222       -0.619341   1.000000
  223       -0.607395   1.000000
  224       -0.597981   1.000000
  225       -0.584289   1.000000
  226       -0.557623   1.000000
  227       -0.522845   1.000000
  228       -0.495890   1.000000
  229       -0.491296   1.000000
  230       -0.470739   1.000000
  231       -0.468141   1.000000
  232       -0.453398   1.000000
  233       -0.445012   1.000000
  234       -0.434735   1.000000
  235       -0.428286   1.000000
  236       -0.411164   1.000000
  237       -0.402587   1.000000
  238       -0.367917   1.000000
  239       -0.353752   1.000000
  240       -0.351534   1.000000
  241       -0.330098   1.000000
  242       -0.316128   1.000000
  243       -0.271489   1.000000
  244       -0.238283   1.000000
  245       -0.218739   1.000000
  246       -0.207052   1.000000
  247       -0.190383   1.000000
  248       -0.176972   1.000000
  249       -0.150161   1.000000
  250       -0.133837   1.000000
  251       -0.121931   1.000000
  252       -0.117263   1.000000
  253       -0.091196   1.000000
  254       -0.079055   1.000000
  255       -0.063440   1.000000
  256       -0.060337   1.000000
  257       -0.048018   1.000000
  258       -0.037647   1.000000
  259       -0.026738   1.000000
  260       -0.011761   1.000000
  261        0.005055   1.000000
  262        0.025640   1.000000
  263        0.034911   1.000000
  264        0.044241   1.000000
  265        0.065256   1.000001
  266        0.071333   1.000001
  267        0.077899   1.000001
  268        0.090132   1.000002
  269        0.100900   1.000003
  270        0.117674   1.000004
  271        0.123084   1.000005
  272        0.128287   1.000006
  273        0.148483   1.000012
  274        0.159534   1.000017
  275        0.171218   1.000025
  276        0.179637   1.000032
  277        0.184267   1.000036
  278        0.195182   1.000050
  279        0.205440   1.000068
  280        0.219620   1.000101
  281        0.233728   1.000148
  282        0.244763   1.000199
  283        0.267944   1.000362
  284        0.280180   1.000491
  285        0.307883   1.000945
  286        0.321186   1.001274
  287        0.351969   1.002446
  288        0.365790   1.003218
  289        0.377808   1.004046
  290        0.401306   1.006167
  291        0.409925   1.007134
  292        0.423146   1.008835
  293        0.435771   1.010717
  294        0.449063   1.012975
  295        0.471556   1.017403
  296        0.498415   1.023422
  297        0.512172   1.026591
  298        0.540166   1.032356
  299        0.549300   1.033775
  300        0.559649   1.034924
  301        0.565737   1.035316
  302        0.572350   1.035457
  303        0.575144   1.035417
  304        0.582334   1.035010
  305        0.587936   1.034359
  306        0.605909   1.029922
  307        0.613440   1.026820
  308        0.626640   1.019291
  309        0.642628   1.006096
  310        0.645234   1.003478
  311        0.658511   0.987927
  312        0.667651   0.974953
  313        0.674325   0.964249
  314        0.680421   0.953535
  315        0.686311   0.942313
  316        0.690957   0.932854
  317        0.695889   0.922219
  318        0.705092   0.900728
  319        0.712740   0.881246
  320        0.717846   0.867424
  321        0.732834   0.823187
  322        0.734630   0.817530
  323        0.748417   0.771720
  324        0.767336   0.702663
  325        0.771967   0.684818
  326        0.784198   0.636251
  327        0.792986   0.600295
  328        0.813707   0.513412
  329        0.823581   0.471650
  330        0.829584   0.446352
  331        0.837914   0.411526
  332        0.842146   0.394017
  333        0.847163   0.373462
  334        0.854957   0.342062
  335        0.861164   0.317604
  336        0.887183   0.221908
  337        0.900148   0.179233
  338        0.944315   0.063995
  339        0.975606   0.011596
  340        0.986840  -0.001718
  341        1.001049  -0.014846
  342        1.004383  -0.017371
  343        1.064732  -0.035426
  344        1.189851  -0.012065
  345        1.291974  -0.001983
  346        1.541697  -0.000002
  347        1.641231  -0.000000
  348        1.717634  -0.000000
  349        1.760371  -0.000000
  350        1.827010  -0.000000
  351        2.062024  -0.000000
  352        2.122629  -0.000000
  353        2.221108  -0.000000
  354        2.319383  -0.000000
  355        2.372810  -0.000000
  356        2.502851  -0.000000
  357        2.764135  -0.000000
  358        2.916138  -0.000000
  359        2.959283  -0.000000
  360        3.029853  -0.000000
  361        3.125970  -0.000000
  362        3.182415  -0.000000
  363        3.225156  -0.000000
  364        3.319841  -0.000000
  365        3.380245  -0.000000
  366        3.498840  -0.000000
  367        3.534075  -0.000000
  368        3.572260  -0.000000
  369        3.696888  -0.000000
  370        3.776657  -0.000000
  371        3.839297  -0.000000
  372        3.923283  -0.000000
  373        3.965414  -0.000000
  374        4.084320  -0.000000
  375        4.380821  -0.000000
  376        4.543312  -0.000000
  377        4.667594  -0.000000
  378        4.699942  -0.000000
  379        4.761009  -0.000000
  380        4.985913  -0.000000
  381        5.068277  -0.000000
  382        5.079426  -0.000000
  383        5.088274  -0.000000
  384        5.186087  -0.000000
  385        5.260489  -0.000000
  386        5.487971  -0.000000
  387        5.616305  -0.000000
  388        5.684494  -0.000000
  389        5.717565  -0.000000
  390        5.771364  -0.000000
  391        5.834397  -0.000000
  392        5.907580  -0.000000
  393        6.060767  -0.000000
  394        6.156216  -0.000000
  395        6.351485   0.000000
  396        6.583128   0.000000
  397        6.683649   0.000000
  398        6.700131   0.000000
  399        6.802014   0.000000
  400        6.833807   0.000000
 
  0.0000000E+00  0.3333333E+00  0.0000000E+00  0.2222222E+00
    1      -22.457042   1.000000
    2      -17.553075   1.000000
    3       -9.503353   1.000000
    4       -6.092176   1.000000
    5       -6.088043   1.000000
    6       -5.396262   1.000000
    7       -5.258275   1.000000
    8       -4.798629   1.000000
    9       -4.646183   1.000000
   10       -4.526350   1.000000
   11       -4.288115   1.000000
   12       -4.222089   1.000000
   13       -4.190762   1.000000
   14       -4.179127   1.000000
   15       -3.829607   1.000000
   16       -3.789288   1.000000
   17       -3.774843   1.000000
   18       -3.756849   1.000000
   19       -3.740791   1.000000
   20       -3.736755   1.000000
   21       -3.706953   1.000000
   22       -3.666290   1.000000
   23       -3.661491   1.000000
   24       -3.652184   1.000000
   25       -3.647267   1.000000
   26       -3.618248   1.000000
   27       -3.587749   1.000000
   28       -3.541043   1.000000
   29       -3.529231   1.000000
   30       -3.524400   1.000000
   31       -3.446833   1.000000
   32       -3.440966   1.000000
   33       -3.402082   1.000000
   34       -3.394251   1.000000
   35       -3.377173   1.000000
   36       -3.364576   1.000000
   37       -3.343919   1.000000
   38       -3.338074   1.000000
   39       -3.323761   1.000000
   40       -3.316971   1.000000
   41       -3.308438   1.000000
   42       -3.290651   1.000000
   43       -3.287197   1.000000
   44       -3.267831   1.000000
   45       -3.245127   1.000000
   46       -3.237223   1.000000
   47       -3.231810   1.000000
   48       -3.225941   1.000000
   49       -3.219001   1.000000
   50       -3.211546   1.000000
   51       -3.206852   1.000000
   52       -3.186812   1.000000
   53       -3.164661   1.000000
   54       -3.157627   1.000000
   55       -3.150533   1.000000
   56       -3.137998   1.000000
   57       -3.115683   1.000000
   58       -3.101977   1.000000
   59       -3.067817   1.000000
   60       -3.061093   1.000000
   61       -3.043621   1.000000
   62       -3.042547   1.000000
   63       -3.026095   1.000000
   64       -3.017226   1.000000
   65       -2.966200   1.000000
   66       -2.934994   1.000000
   67       -2.917037   1.000000
   68       -2.902736   1.000000
   69       -2.883610   1.000000
   70       -2.867807   1.000000
   71       -2.859203   1.000000
   72       -2.847630   1.000000
   73       -2.824796   1.000000
   74       -2.815234   1.000000
   75       -2.795679   1.000000
   76       -2.748059   1.000000
   77       -2.733044   1.000000
   78       -2.720005   1.000000
   79       -2.703141   1.000000
   80       -2.682463   1.000000
   81       -2.672542   1.000000
   82       -2.660892   1.000000
   83       -2.628476   1.000000
   84       -2.612629   1.000000
   85       -2.585369   1.000000
   86       -2.564432   1.000000
   87       -2.550717   1.000000
   88       -2.534006   1.000000
   89       -2.513330   1.000000
   90       -2.507364   1.000000
   91       -2.492911   1.000000
   92       -2.487924   1.000000
   93       -2.479234   1.000000
   94       -2.471092   1.000000
   95       -2.451477   1.000000
   96       -2.417624   1.000000
   97       -2.374425   1.000000