 vasp.5.4.4.18Apr17-6-g9f103f2a35 (build Aug 16 2021 22:57:11) complex          
  
 POSCAR found type information on POSCAR  Pd N  O 
 05/POSCAR found :  3 types and      67 ions
 scaLAPACK will be used

 ----------------------------------------------------------------------------- 
|                                                                             |
|  ADVICE TO THIS USER RUNNING 'VASP/VAMP'   (HEAR YOUR MASTER'S VOICE ...):  |
|                                                                             |
|      You have a (more or less) 'large supercell' and for larger cells       |
|      it might be more efficient to use real space projection opertators     |
|      So try LREAL= Auto  in the INCAR   file.                               |
|      Mind:          For very  accurate calculation you might also keep the  |
|      reciprocal projection scheme          (i.e. LREAL=.FALSE.)             |
|                                                                             |
 ----------------------------------------------------------------------------- 

 LDA part: xc-table for Pade appr. of Perdew
 00/POSCAR found :  3 types and      67 ions
 06/POSCAR found :  3 types and      67 ions
 Jacobian:    26.7849458530529     
 POSCAR, INCAR and KPOINTS ok, starting setup
 FFT: planning ...
 WAVECAR not read
 entering main loop
       N       E                     dE             d eps       ncg     rms          rms(c)
DAV:   1     0.381197789974E+04    0.38120E+04   -0.26683E+05  4080   0.117E+03
DAV:   2    -0.126045933066E+03   -0.39380E+04   -0.36885E+04  4464   0.285E+02
DAV:   3    -0.348687929457E+03   -0.22264E+03   -0.19938E+03  4480   0.613E+01
DAV:   4    -0.356461165552E+03   -0.77732E+01   -0.74916E+01  4696   0.113E+01
DAV:   5    -0.356707717630E+03   -0.24655E+00   -0.24601E+00  4656   0.212E+00    0.516E+01
DAV:   6    -0.344458072139E+03    0.12250E+02   -0.66302E+01  4208   0.209E+01    0.351E+01
DAV:   7    -0.404606791601E+03   -0.60149E+02   -0.40996E+01  4752   0.508E+01    0.606E+01
DAV:   8    -0.353819401381E+03    0.50787E+02   -0.37178E+01  4664   0.349E+01    0.325E+01
DAV:   9    -0.350980437968E+03    0.28390E+01   -0.34529E+01  4296   0.279E+01    0.342E+01
DAV:  10    -0.343766726777E+03    0.72137E+01   -0.21287E+01  4136   0.199E+01    0.210E+01
DAV:  11    -0.339697874933E+03    0.40689E+01   -0.84987E+00  4128   0.131E+01    0.136E+01
DAV:  12    -0.339704228968E+03   -0.63540E-02   -0.53252E+00  4136   0.984E+00    0.119E+01
DAV:  13    -0.338876592399E+03    0.82764E+00   -0.25174E+00  4128   0.702E+00    0.850E+00
DAV:  14    -0.338671869282E+03    0.20472E+00   -0.11217E+00  4144   0.423E+00    0.672E+00
DAV:  15    -0.338613728528E+03    0.58141E-01   -0.78205E-01  4144   0.364E+00    0.570E+00
DAV:  16    -0.338435063572E+03    0.17866E+00   -0.55028E-01  4120   0.287E+00    0.365E+00
DAV:  17    -0.338369923658E+03    0.65140E-01   -0.14720E-01  4128   0.149E+00    0.195E+00
DAV:  18    -0.338353615392E+03    0.16308E-01   -0.66860E-02  4184   0.103E+00    0.153E+00
DAV:  19    -0.338345778245E+03    0.78371E-02   -0.46217E-02  4184   0.822E-01    0.127E+00
DAV:  20    -0.338340709300E+03    0.50689E-02   -0.24318E-02  4240   0.602E-01    0.931E-01
DAV:  21    -0.338336666963E+03    0.40423E-02   -0.14320E-02  4208   0.500E-01    0.583E-01
DAV:  22    -0.338334436978E+03    0.22300E-02   -0.49782E-03  4216   0.292E-01    0.361E-01
DAV:  23    -0.338334450518E+03   -0.13540E-04   -0.31270E-03  4288   0.224E-01    0.396E-01
DAV:  24    -0.338334014644E+03    0.43587E-03   -0.23974E-03  4248   0.185E-01    0.312E-01
DAV:  25    -0.338333697617E+03    0.31703E-03   -0.13735E-03  4168   0.145E-01    0.201E-01
DAV:  26    -0.338333694578E+03    0.30387E-05   -0.82087E-04  4144   0.114E-01    0.151E-01
DAV:  27    -0.338333812092E+03   -0.11751E-03   -0.43314E-04  4104   0.806E-02    0.132E-01
DAV:  28    -0.338333925367E+03   -0.11328E-03   -0.39679E-04  4088   0.755E-02    0.113E-01
DAV:  29    -0.338334120076E+03   -0.19471E-03   -0.33001E-04  4056   0.651E-02    0.994E-02
DAV:  30    -0.338334419155E+03   -0.29908E-03   -0.21105E-04  4072   0.531E-02    0.782E-02
DAV:  31    -0.338334796560E+03   -0.37741E-03   -0.11972E-04  4096   0.390E-02    0.456E-02
DAV:  32    -0.338335092578E+03   -0.29602E-03   -0.58701E-05  4168   0.255E-02    0.327E-02
DAV:  33    -0.338335399551E+03   -0.30697E-03   -0.41250E-05  4144   0.216E-02    0.248E-02
DAV:  34    -0.338335616155E+03   -0.21660E-03   -0.23472E-05  4224   0.163E-02    0.258E-02
DAV:  35    -0.338335901290E+03   -0.28513E-03   -0.26847E-05  4104   0.158E-02    0.237E-02
DAV:  36    -0.338336010355E+03   -0.10907E-03   -0.12179E-05  3848   0.117E-02    0.153E-02
DAV:  37    -0.338336185922E+03   -0.17557E-03   -0.78966E-06  3360   0.928E-03    0.133E-02
DAV:  38    -0.338336441709E+03   -0.25579E-03   -0.84506E-06  3400   0.879E-03    0.111E-02
DAV:  39    -0.338336576716E+03   -0.13501E-03   -0.36788E-06  3264   0.628E-03    0.895E-03
DAV:  40    -0.338336791214E+03   -0.21450E-03   -0.60437E-06  3304   0.554E-03    0.592E-03
DAV:  41    -0.338336850902E+03   -0.59688E-04   -0.15229E-06  2808   0.386E-03    0.414E-03
DAV:  42    -0.338336924875E+03   -0.73972E-04   -0.23861E-06  3056   0.277E-03    0.333E-03
DAV:  43    -0.338336949931E+03   -0.25056E-04   -0.58139E-07  2600   0.209E-03    0.188E-03
DAV:  44    -0.338336976433E+03   -0.26502E-04   -0.96607E-07  2656   0.155E-03    0.204E-03
DAV:  45    -0.338336988720E+03   -0.12287E-04   -0.38687E-07  2488   0.129E-03    0.980E-04
DAV:  46    -0.338336992267E+03   -0.35470E-05   -0.16244E-07  2472   0.732E-04    0.764E-04
DAV:  47    -0.338336995216E+03   -0.29482E-05   -0.13128E-07  2376   0.548E-04    0.494E-04
DAV:  48    -0.338336996201E+03   -0.98529E-06   -0.61154E-08  2448   0.362E-04
   1 F= -.33833700E+03 E0= -.33822078E+03  d E =-.338337E+03
quench:  g(F)=  0.000E+00 g(S)=  0.000E+00 dE (1.order)= 0.000E+00
 bond charge predicted
       N       E                     dE             d eps       ncg     rms          rms(c)
DAV:   1    -0.338336991901E+03    0.33149E-05   -0.34096E-06  3152   0.256E-03    0.494E-04
DAV:   2    -0.338336992172E+03   -0.27114E-06   -0.12070E-07  2392   0.802E-04    0.140E-03
DAV:   3    -0.338336992198E+03   -0.26703E-07   -0.31756E-08  2112   0.766E-04    0.117E-03
DAV:   4    -0.338336992235E+03   -0.36518E-07   -0.15490E-08  2120   0.539E-04    0.537E-04
DAV:   5    -0.338336992342E+03   -0.10700E-06   -0.74108E-09  2192   0.314E-04
   2 F= -.33833699E+03 E0= -.33822078E+03  d E =0.385886E-05
quench:  g(F)=  0.000E+00 g(S)=  0.000E+00 dE (1.order)= 0.000E+00
 bond charge predicted
       N       E                     dE             d eps       ncg     rms          rms(c)
DAV:   1    -0.338336982032E+03    0.10203E-04   -0.13475E-05  3952   0.507E-03    0.881E-04
DAV:   2    -0.338336982174E+03   -0.14219E-06   -0.31481E-07  2328   0.966E-04    0.154E-03
DAV:   3    -0.338336982184E+03   -0.96989E-08   -0.47486E-08  2120   0.883E-04    0.111E-03
DAV:   4    -0.338336982236E+03   -0.52314E-07   -0.31612E-08  2128   0.796E-04    0.168E-03
DAV:   5    -0.338336982242E+03   -0.60318E-08   -0.28933E-08  2120   0.806E-04
   3 F= -.33833698E+03 E0= -.33822077E+03  d E =0.100999E-04
quench:  g(F)=  0.000E+00 g(S)=  0.000E+00 dE (1.order)= 0.000E+00
 bond charge predicted
       N       E                     dE             d eps       ncg     rms          rms(c)
DAV:   1    -0.338336966700E+03    0.15536E-04   -0.30242E-05  4056   0.761E-03    0.138E-03
DAV:   2    -0.338336966827E+03   -0.12631E-06   -0.70321E-07  2304   0.145E-03    0.232E-03
DAV:   3    -0.338336966848E+03   -0.21413E-07   -0.12164E-07  2120   0.151E-03    0.247E-03
DAV:   4    -0.338336966859E+03   -0.11016E-07   -0.99455E-08  2120   0.147E-03    0.263E-03
DAV:   5    -0.338336966839E+03    0.20271E-07   -0.57348E-08  2128   0.108E-03
   4 F= -.33833697E+03 E0= -.33822076E+03  d E =0.154033E-04
quench:  g(F)=  0.000E+00 g(S)=  0.000E+00 dE (1.order)= 0.000E+00
 bond charge predicted
       N       E                     dE             d eps       ncg     rms          rms(c)
DAV:   1    -0.338336946070E+03    0.20789E-04   -0.53676E-05  4080   0.101E-02    0.192E-03
DAV:   2    -0.338336946352E+03   -0.28191E-06   -0.13822E-06  2408   0.263E-03    0.492E-03
DAV:   3    -0.338336946236E+03    0.11642E-06   -0.30829E-07  2120   0.241E-03    0.300E-03
DAV:   4    -0.338336946251E+03   -0.15665E-07   -0.14423E-07  2112   0.175E-03    0.309E-03
DAV:   5    -0.338336946219E+03    0.32502E-07   -0.11177E-07  2120   0.152E-03
   5 F= -.33833695E+03 E0= -.33822073E+03  d E =0.206198E-04
quench:  g(F)=  0.000E+00 g(S)=  0.000E+00 dE (1.order)= 0.000E+00
 bond charge predicted
       N       E                     dE             d eps       ncg     rms          rms(c)
DAV:   1    -0.338336920241E+03    0.26010E-04   -0.83593E-05  4048   0.127E-02    0.247E-03
DAV:   2    -0.338336920621E+03   -0.37956E-06   -0.22129E-06  2616   0.334E-03    0.568E-03
DAV:   3    -0.338336920430E+03    0.19045E-06   -0.47305E-07  2096   0.289E-03    0.264E-03
DAV:   4    -0.338336920550E+03   -0.11952E-06   -0.22984E-07  2080   0.214E-03    0.472E-03
DAV:   5    -0.338336920460E+03    0.89145E-07   -0.21982E-07  2064   0.222E-03
   6 F= -.33833692E+03 E0= -.33822071E+03  d E =0.257584E-04
quench:  g(F)=  0.000E+00 g(S)=  0.000E+00 dE (1.order)= 0.000E+00
 bond charge predicted
       N       E                     dE             d eps       ncg     rms          rms(c)
DAV:   1    -0.338336889250E+03    0.31300E-04   -0.12006E-04  4032   0.152E-02    0.310E-03
DAV:   2    -0.338336890130E+03   -0.88012E-06   -0.35107E-06  2840   0.496E-03    0.961E-03
DAV:   3    -0.338336889622E+03    0.50818E-06   -0.97341E-07  2152   0.441E-03    0.508E-03
DAV:   4    -0.338336889587E+03    0.34968E-07   -0.38257E-07  2112   0.286E-03    0.471E-03
DAV:   5    -0.338336889510E+03    0.76921E-07   -0.25523E-07  2072   0.218E-03
   7 F= -.33833689E+03 E0= -.33822067E+03  d E =0.309505E-04
quench:  g(F)=  0.000E+00 g(S)=  0.000E+00 dE (1.order)= 0.000E+00
 bond charge predicted
       N       E                     dE             d eps       ncg     rms          rms(c)
DAV:   1    -0.338336853143E+03    0.36444E-04   -0.16280E-04  4016   0.177E-02    0.366E-03
DAV:   2    -0.338336854264E+03   -0.11209E-05   -0.48649E-06  3096   0.576E-03    0.108E-02
DAV:   3    -0.338336853714E+03    0.54957E-06   -0.13945E-06  2200   0.527E-03    0.709E-03
DAV:   4    -0.338336853506E+03    0.20802E-06   -0.51445E-07  2144   0.325E-03    0.412E-03
DAV:   5    -0.338336853498E+03    0.87530E-08   -0.33190E-07  2056   0.246E-03
   8 F= -.33833685E+03 E0= -.33822064E+03  d E =0.360123E-04
quench:  g(F)=  0.000E+00 g(S)=  0.000E+00 dE (1.order)= 0.000E+00
 bond charge predicted
       N       E                     dE             d eps       ncg     rms          rms(c)
DAV:   1    -0.338336811924E+03    0.41583E-04   -0.21183E-04  4016   0.202E-02    0.437E-03
DAV:   2    -0.338336813736E+03   -0.18123E-05   -0.67321E-06  3296   0.732E-03    0.139E-02
DAV:   3    -0.338336812357E+03    0.13788E-05   -0.20135E-06  2240   0.615E-03    0.441E-03
DAV:   4    -0.338336812424E+03   -0.66459E-07   -0.54829E-07  2096   0.296E-03    0.504E-03
DAV:   5    -0.338336812611E+03   -0.18730E-06   -0.53511E-07  2112   0.345E-03
   9 F= -.33833681E+03 E0= -.33822061E+03  d E =0.408866E-04
quench:  g(F)=  0.000E+00 g(S)=  0.000E+00 dE (1.order)= 0.000E+00
 bond charge predicted
       N       E                     dE             d eps       ncg     rms          rms(c)
DAV:   1    -0.338336765634E+03    0.46789E-04   -0.26736E-04  4008   0.228E-02    0.486E-03
DAV:   2    -0.338336769067E+03   -0.34332E-05   -0.92808E-06  3496   0.918E-03    0.204E-02
DAV:   3    -0.338336766823E+03    0.22446E-05   -0.34349E-06  2320   0.861E-03    0.110E-02
DAV:   4    -0.338336766169E+03    0.65408E-06   -0.11773E-06  2200   0.482E-03    0.477E-03
DAV:   5    -0.338336766185E+03   -0.15738E-07   -0.51594E-07  2056   0.288E-03
  10 F= -.33833677E+03 E0= -.33822055E+03  d E =0.464264E-04
quench:  g(F)=  0.000E+00 g(S)=  0.000E+00 dE (1.order)= 0.000E+00
 bond charge predicted
       N       E                     dE             d eps       ncg     rms          rms(c)
DAV:   1    -0.338336714315E+03    0.51854E-04   -0.32825E-04  4008   0.252E-02    0.575E-03
DAV:   2    -0.338336718312E+03   -0.39971E-05   -0.11822E-05  3752   0.105E-02    0.213E-02
DAV:   3    -0.338336715711E+03    0.26010E-05   -0.46641E-06  2432   0.961E-03    0.119E-02
DAV:   4    -0.338336714995E+03    0.71577E-06   -0.13598E-06  2224   0.514E-03    0.592E-03
DAV:   5    -0.338336714990E+03    0.52023E-08   -0.69112E-07  2064   0.352E-03
  11 F= -.33833671E+03 E0= -.33822050E+03  d E =0.511948E-04
quench:  g(F)=  0.000E+00 g(S)=  0.000E+00 dE (1.order)= 0.000E+00
 bond charge predicted
       N       E                     dE             d eps       ncg     rms          rms(c)
DAV:   1    -0.338336657990E+03    0.57005E-04   -0.39501E-04  4000   0.276E-02    0.594E-03
DAV:   2    -0.338336661220E+03   -0.32300E-05   -0.12940E-05  3816   0.991E-03    0.187E-02
DAV:   3    -0.338336658728E+03    0.24918E-05   -0.36310E-06  2408   0.805E-03    0.570E-03
DAV:   4    -0.338336658805E+03   -0.76383E-07   -0.98329E-07  2056   0.381E-03    0.577E-03
DAV:   5    -0.338336659235E+03   -0.43064E-06   -0.93996E-07  2192   0.443E-03
  12 F= -.33833666E+03 E0= -.33822046E+03  d E =0.557545E-04
quench:  g(F)=  0.000E+00 g(S)=  0.000E+00 dE (1.order)= 0.000E+00
 bond charge predicted
       N       E                     dE             d eps       ncg     rms          rms(c)
DAV:   1    -0.338336596738E+03    0.62067E-04   -0.46854E-04  4008   0.303E-02    0.750E-03
DAV:   2    -0.338336616776E+03   -0.20038E-04   -0.26472E-05  4072   0.198E-02    0.516E-02
DAV:   3    -0.338336598698E+03    0.18078E-04   -0.15523E-05  2944   0.186E-02    0.155E-02
DAV:   4    -0.338336597586E+03    0.11114E-05   -0.28138E-06  2344   0.706E-03    0.625E-03
DAV:   5    -0.338336597661E+03   -0.74564E-07   -0.10676E-06  2056   0.391E-03
  13 F= -.33833660E+03 E0= -.33822038E+03  d E =0.615746E-04
quench:  g(F)=  0.000E+00 g(S)=  0.000E+00 dE (1.order)= 0.000E+00
 bond charge predicted
       N       E                     dE             d eps       ncg     rms          rms(c)
DAV:   1    -0.338336530506E+03    0.67081E-04   -0.54605E-04  4000   0.325E-02    0.721E-03
DAV:   2    -0.338336536849E+03   -0.63432E-05   -0.19758E-05  4008   0.131E-02    0.275E-02
DAV:   3    -0.338336532530E+03    0.43183E-05   -0.71155E-06  2616   0.117E-02    0.141E-02
DAV:   4    -0.338336531659E+03    0.87170E-06   -0.20354E-06  2256   0.628E-03    0.783E-03
DAV:   5    -0.338336531563E+03    0.96035E-07   -0.11456E-06  2152   0.450E-03
  14 F= -.33833653E+03 E0= -.33822031E+03  d E =0.660980E-04
quench:  g(F)=  0.000E+00 g(S)=  0.000E+00 dE (1.order)= 0.000E+00
 bond charge predicted
       N       E                     dE             d eps       ncg     rms          rms(c)
DAV:   1    -0.338336459421E+03    0.72238E-04   -0.62837E-04  4000   0.349E-02    0.833E-03
DAV:   2    -0.338336467340E+03   -0.79192E-05   -0.24063E-05  4056   0.152E-02    0.293E-02
DAV:   3    -0.338336460562E+03    0.67783E-05   -0.93519E-06  3064   0.129E-02    0.782E-03
DAV:   4    -0.338336461147E+03   -0.58550E-06   -0.19584E-06  2320   0.559E-03    0.110E-02
DAV:   5    -0.338336461089E+03    0.58673E-07   -0.16425E-06  2248   0.607E-03
  15 F= -.33833646E+03 E0= -.33822025E+03  d E =0.704742E-04
quench:  g(F)=  0.000E+00 g(S)=  0.000E+00 dE (1.order)= 0.000E+00
 bond charge predicted
       N       E                     dE             d eps       ncg     rms          rms(c)
DAV:   1    -0.338336383509E+03    0.77639E-04   -0.71739E-04  4008   0.373E-02    0.842E-03
DAV:   2    -0.338336394616E+03   -0.11108E-04   -0.28357E-05  4040   0.166E-02    0.373E-02
DAV:   3    -0.338336386802E+03    0.78148E-05   -0.11686E-05  2880   0.152E-02    0.187E-02
DAV:   4    -0.338336384966E+03    0.18356E-05   -0.33249E-06  2360   0.813E-03    0.890E-03
DAV:   5    -0.338336384812E+03    0.15392E-06   -0.13594E-06  2144   0.474E-03
  16 F= -.33833638E+03 E0= -.33822016E+03  d E =0.762765E-04
quench:  g(F)=  0.000E+00 g(S)=  0.000E+00 dE (1.order)= 0.000E+00
 bond charge predicted
       N       E                     dE             d eps       ncg     rms          rms(c)
DAV:   1    -0.338336302839E+03    0.82127E-04   -0.80937E-04  4000   0.396E-02    0.973E-03
DAV:   2    -0.338336315112E+03   -0.12273E-04   -0.33610E-05  4072   0.183E-02    0.370E-02
DAV:   3    -0.338336305653E+03    0.94584E-05   -0.15298E-05  3520   0.166E-02    0.169E-02
DAV:   4    -0.338336304568E+03    0.10858E-05   -0.31590E-06  2320   0.775E-03    0.989E-03
DAV:   5    -0.338336304492E+03    0.75932E-07   -0.16220E-06  2184   0.561E-03
  17 F= -.33833630E+03 E0= -.33822009E+03  d E =0.803203E-04
quench:  g(F)=  0.000E+00 g(S)=  0.000E+00 dE (1.order)= 0.000E+00
 bond charge predicted
       N       E                     dE             d eps       ncg     rms          rms(c)
DAV:   1    -0.338336217440E+03    0.87127E-04   -0.90708E-04  4000   0.419E-02    0.939E-03
DAV:   2    -0.338336228270E+03   -0.10830E-04   -0.33788E-05  4040   0.172E-02    0.363E-02
DAV:   3    -0.338336219084E+03    0.91862E-05   -0.12026E-05  3312   0.142E-02    0.825E-03
DAV:   4    -0.338336219103E+03   -0.19281E-07   -0.19519E-06  2440   0.537E-03    0.681E-03
DAV:   5    -0.338336219787E+03   -0.68345E-06   -0.18301E-06  2256   0.583E-03
  18 F= -.33833622E+03 E0= -.33822002E+03  d E =0.847052E-04
quench:  g(F)=  0.000E+00 g(S)=  0.000E+00 dE (1.order)= 0.000E+00
 bond charge predicted
       N       E                     dE             d eps       ncg     rms          rms(c)
DAV:   1    -0.338336127718E+03    0.91385E-04   -0.10108E-03  4000   0.444E-02    0.130E-02
DAV:   2    -0.338336248747E+03   -0.12103E-03   -0.10886E-04  4416   0.454E-02    0.129E-01
DAV:   3    -0.338336127776E+03    0.12097E-03   -0.81257E-05  4480   0.422E-02    0.192E-02
DAV:   4    -0.338336129242E+03   -0.14659E-05   -0.68513E-06  3104   0.996E-03    0.907E-03
DAV:   5    -0.338336129431E+03   -0.18871E-06   -0.20564E-06  2432   0.553E-03
  19 F= -.33833613E+03 E0= -.33821991E+03  d E =0.903558E-04
quench:  g(F)=  0.000E+00 g(S)=  0.000E+00 dE (1.order)= 0.000E+00
 bond charge predicted
       N       E                     dE             d eps       ncg     rms          rms(c)
DAV:   1    -0.338336032739E+03    0.96503E-04   -0.11167E-03  4000   0.464E-02    0.104E-02
DAV:   2    -0.338336048427E+03   -0.15688E-04   -0.42887E-05  4072   0.197E-02    0.446E-02
DAV:   3    -0.338336036516E+03    0.11912E-04   -0.17228E-05  3760   0.176E-02    0.180E-02
DAV:   4    -0.338336035255E+03    0.12603E-05   -0.37051E-06  2328   0.858E-03    0.117E-02
DAV:   5    -0.338336034856E+03    0.39931E-06   -0.20282E-06  2384   0.622E-03
  20 F= -.33833603E+03 E0= -.33821980E+03  d E =0.945746E-04
quench:  g(F)=  0.000E+00 g(S)=  0.000E+00 dE (1.order)= 0.000E+00
 bond charge predicted
       N       E                     dE             d eps       ncg     rms          rms(c)
DAV:   1    -0.338335933605E+03    0.10165E-03   -0.12230E-03  4000   0.486E-02    0.112E-02
DAV:   2    -0.338335946287E+03   -0.12682E-04   -0.42353E-05  4080   0.190E-02    0.356E-02
DAV:   3    -0.338335936415E+03    0.98715E-05   -0.15763E-05  3768   0.169E-02    0.136E-02
DAV:   4    -0.338335937337E+03   -0.92170E-06   -0.38946E-06  2368   0.862E-03    0.165E-02
DAV:   5    -0.338335936222E+03    0.11145E-05   -0.26730E-06  2312   0.768E-03    0.987E-03
DAV:   6    -0.338335935830E+03    0.39289E-06   -0.14449E-06  2160   0.527E-03
  21 F= -.33833594E+03 E0= -.33821970E+03  d E =0.990267E-04
quench:  g(F)=  0.000E+00 g(S)=  0.000E+00 dE (1.order)= 0.000E+00
 bond charge predicted
       N       E                     dE             d eps       ncg     rms          rms(c)
DAV:   1    -0.338335829629E+03    0.10659E-03   -0.13376E-03  4000   0.506E-02    0.101E-02
DAV:   2    -0.338335837731E+03   -0.81019E-05   -0.37398E-05  4008   0.140E-02    0.272E-02
DAV:   3    -0.338335833187E+03    0.45440E-05   -0.10455E-05  3064   0.134E-02    0.140E-02
DAV:   4    -0.338335834824E+03   -0.16377E-05   -0.43233E-06  2328   0.962E-03    0.198E-02
DAV:   5    -0.338335832777E+03    0.20478E-05   -0.31063E-06  2320   0.807E-03    0.101E-02
DAV:   6    -0.338335832152E+03    0.62443E-06   -0.11366E-06  2176   0.471E-03
  22 F= -.33833583E+03 E0= -.33821959E+03  d E =0.103677E-03
quench:  g(F)=  0.000E+00 g(S)=  0.000E+00 dE (1.order)= 0.000E+00
 bond charge predicted
       N       E                     dE             d eps       ncg     rms          rms(c)
DAV:   1    -0.338335721612E+03    0.11116E-03   -0.14524E-03  4000   0.526E-02    0.108E-02
DAV:   2    -0.338335731018E+03   -0.94059E-05   -0.41971E-05  4040   0.157E-02    0.288E-02
DAV:   3    -0.338335725590E+03    0.54282E-05   -0.12776E-05  3424   0.148E-02    0.156E-02
DAV:   4    -0.338335726347E+03   -0.75764E-06   -0.45368E-06  2448   0.952E-03    0.181E-02
DAV:   5    -0.338335724855E+03    0.14927E-05   -0.29235E-06  2312   0.795E-03    0.996E-03
DAV:   6    -0.338335724307E+03    0.54757E-06   -0.11096E-06  2152   0.474E-03
  23 F= -.33833572E+03 E0= -.33821948E+03  d E =0.107845E-03
quench:  g(F)=  0.000E+00 g(S)=  0.000E+00 dE (1.order)= 0.000E+00
 bond charge predicted
       N       E                     dE             d eps       ncg     rms          rms(c)
DAV:   1    -0.338335609696E+03    0.11516E-03   -0.15720E-03  4000   0.548E-02    0.107E-02
DAV:   2    -0.338335618849E+03   -0.91534E-05   -0.44348E-05  4016   0.153E-02    0.288E-02
DAV:   3    -0.338335613488E+03    0.53613E-05   -0.11584E-05  3192   0.138E-02    0.135E-02
DAV:   4    -0.338335615441E+03   -0.19536E-05   -0.44463E-06  2328   0.965E-03    0.204E-02
DAV:   5    -0.338335613416E+03    0.20254E-05   -0.36526E-06  2320   0.893E-03    0.110E-02
DAV:   6    -0.338335612762E+03    0.65434E-06   -0.14858E-06  2200   0.559E-03
  24 F= -.33833561E+03 E0= -.33821937E+03  d E =0.111545E-03
quench:  g(F)=  0.000E+00 g(S)=  0.000E+00 dE (1.order)= 0.000E+00
 bond charge predicted
       N       E                     dE             d eps       ncg     rms          rms(c)
DAV:   1    -0.338335493184E+03    0.12023E-03   -0.16938E-03  4000   0.569E-02    0.111E-02
DAV:   2    -0.338335501604E+03   -0.84197E-05   -0.44964E-05  4016   0.144E-02    0.258E-02
DAV:   3    -0.338335498045E+03    0.35592E-05   -0.11913E-05  3224   0.141E-02    0.169E-02
DAV:   4    -0.338335499432E+03   -0.13872E-05   -0.55090E-06  2408   0.107E-02    0.214E-02
DAV:   5    -0.338335496996E+03    0.24357E-05   -0.36052E-06  2320   0.888E-03    0.103E-02
DAV:   6    -0.338335496424E+03    0.57230E-06   -0.11183E-06  2160   0.485E-03
  25 F= -.33833550E+03 E0= -.33821925E+03  d E =0.116338E-03
quench:  g(F)=  0.000E+00 g(S)=  0.000E+00 dE (1.order)= 0.000E+00
 bond charge predicted
       N       E                     dE             d eps       ncg     rms          rms(c)
DAV:   1    -0.338335372778E+03    0.12422E-03   -0.18161E-03  4000   0.589E-02    0.115E-02
DAV:   2    -0.338335383816E+03   -0.11038E-04   -0.52112E-05  4024   0.171E-02    0.318E-02
DAV:   3    -0.338335377339E+03    0.64774E-05   -0.14098E-05  3536   0.153E-02    0.155E-02
DAV:   4    -0.338335378790E+03   -0.14515E-05   -0.49447E-06  2336   0.102E-02    0.201E-02
DAV:   5    -0.338335377030E+03    0.17604E-05   -0.39159E-06  2352   0.915E-03    0.116E-02
DAV:   6    -0.338335376306E+03    0.72351E-06   -0.17068E-06  2232   0.604E-03
  26 F= -.33833538E+03 E0= -.33821913E+03  d E =0.120118E-03
quench:  g(F)=  0.000E+00 g(S)=  0.000E+00 dE (1.order)= 0.000E+00
 bond charge predicted
       N       E                     dE             d eps       ncg     rms          rms(c)
DAV:   1    -0.338335247888E+03    0.12914E-03   -0.19427E-03  4000   0.609E-02    0.117E-02
DAV:   2    -0.338335257209E+03   -0.93216E-05   -0.50803E-05  4016   0.151E-02    0.271E-02
DAV:   3    -0.338335253291E+03    0.39181E-05   -0.12830E-05  3392   0.146E-02    0.173E-02
DAV:   4    -0.338335255292E+03   -0.20011E-05   -0.62502E-06  2432   0.115E-02    0.235E-02
DAV:   5    -0.338335252229E+03    0.30630E-05   -0.41856E-06  2320   0.961E-03    0.108E-02
DAV:   6    -0.338335251629E+03    0.60023E-06   -0.12813E-06  2192   0.518E-03
  27 F= -.33833525E+03 E0= -.33821900E+03  d E =0.124677E-03
quench:  g(F)=  0.000E+00 g(S)=  0.000E+00 dE (1.order)= 0.000E+00
 bond charge predicted
       N       E                     dE             d eps       ncg     rms          rms(c)
DAV:   1    -0.338335119765E+03    0.13246E-03   -0.20681E-03  4000   0.628E-02    0.121E-02
DAV:   2    -0.338335131659E+03   -0.11895E-04   -0.58214E-05  4016   0.178E-02    0.324E-02
DAV:   3    -0.338335125100E+03    0.65593E-05   -0.15326E-05  3696   0.160E-02    0.170E-02
DAV:   4    -0.338335126495E+03   -0.13951E-05   -0.56314E-06  2352   0.109E-02    0.211E-02
DAV:   5    -0.338335124596E+03    0.18988E-05   -0.43376E-06  2384   0.960E-03    0.122E-02
DAV:   6    -0.338335123765E+03    0.83094E-06   -0.18632E-06  2224   0.633E-03
  28 F= -.33833512E+03 E0= -.33821887E+03  d E =0.127864E-03
quench:  g(F)=  0.000E+00 g(S)=  0.000E+00 dE (1.order)= 0.000E+00
 bond charge predicted
       N       E                     dE             d eps       ncg     rms          rms(c)
DAV:   1    -0.338334987753E+03    0.13684E-03   -0.21982E-03  4000   0.647E-02    0.124E-02
DAV:   2    -0.338334998584E+03   -0.10831E-04   -0.57787E-05  4016   0.163E-02    0.296E-02
DAV:   3    -0.338334993577E+03    0.50068E-05   -0.14550E-05  3624   0.155E-02    0.173E-02
DAV:   4    -0.338334996329E+03   -0.27515E-05   -0.69694E-06  2488   0.121E-02    0.256E-02
DAV:   5    -0.338334992662E+03    0.36670E-05   -0.48566E-06  2328   0.104E-02    0.116E-02
DAV:   6    -0.338334991984E+03    0.67754E-06   -0.15083E-06  2224   0.556E-03
  29 F= -.33833499E+03 E0= -.33821873E+03  d E =0.131781E-03
quench:  g(F)=  0.000E+00 g(S)=  0.000E+00 dE (1.order)= 0.000E+00
 bond charge predicted
       N       E                     dE             d eps       ncg     rms          rms(c)
DAV:   1    -0.338334852360E+03    0.14030E-03   -0.23256E-03  4000   0.666E-02    0.127E-02
DAV:   2    -0.338334864783E+03   -0.12423E-04   -0.63811E-05  4016   0.182E-02    0.324E-02
DAV:   3    -0.338334858422E+03    0.63612E-05   -0.16087E-05  3744   0.165E-02    0.181E-02
DAV:   4    -0.338334859948E+03   -0.15267E-05   -0.63343E-06  2384   0.116E-02    0.223E-02
DAV:   5    -0.338334857759E+03    0.21890E-05   -0.47695E-06  2456   0.101E-02    0.127E-02
DAV:   6    -0.338334856848E+03    0.91128E-06   -0.20001E-06  2256   0.656E-03
  30 F= -.33833486E+03 E0= -.33821860E+03  d E =0.135136E-03
quench:  g(F)=  0.000E+00 g(S)=  0.000E+00 dE (1.order)= 0.000E+00
 bond charge predicted
       N       E                     dE             d eps       ncg     rms          rms(c)
DAV:   1    -0.338334713370E+03    0.14439E-03   -0.24584E-03  4000   0.684E-02    0.131E-02
DAV:   2    -0.338334725963E+03   -0.12593E-04   -0.65209E-05  4016   0.176E-02    0.325E-02
DAV:   3    -0.338334719616E+03    0.63476E-05   -0.16649E-05  3864   0.165E-02    0.173E-02
DAV:   4    -0.338334723148E+03   -0.35322E-05   -0.77099E-06  2576   0.127E-02    0.276E-02
DAV:   5    -0.338334718869E+03    0.42793E-05   -0.55706E-06  2336   0.111E-02    0.125E-02
DAV:   6    -0.338334718080E+03    0.78902E-06   -0.17335E-06  2240   0.592E-03
  31 F= -.33833472E+03 E0= -.33821845E+03  d E =0.138768E-03
quench:  g(F)=  0.000E+00 g(S)=  0.000E+00 dE (1.order)= 0.000E+00
 bond charge predicted
       N       E                     dE             d eps       ncg     rms          rms(c)
DAV:   1    -0.338334571208E+03    0.14766E-03   -0.25864E-03  4000   0.701E-02    0.132E-02
DAV:   2    -0.338334584190E+03   -0.12982E-04   -0.69459E-05  4016   0.186E-02    0.324E-02
DAV:   3    -0.338334577875E+03    0.63151E-05   -0.16796E-05  3776   0.169E-02    0.187E-02
DAV:   4    -0.338334579791E+03   -0.19164E-05   -0.70183E-06  2408   0.122E-02    0.239E-02
DAV:   5    -0.338334577154E+03    0.26375E-05   -0.52344E-06  2480   0.106E-02    0.131E-02
DAV:   6    -0.338334576187E+03    0.96655E-06   -0.21245E-06  2272   0.674E-03
  32 F= -.33833458E+03 E0= -.33821831E+03  d E =0.141893E-03
quench:  g(F)=  0.000E+00 g(S)=  0.000E+00 dE (1.order)= 0.000E+00
 bond charge predicted
       N       E                     dE             d eps       ncg     rms          rms(c)
DAV:   1    -0.338334425776E+03    0.15138E-03   -0.27207E-03  4000   0.719E-02    0.137E-02
DAV:   2    -0.338334440245E+03   -0.14469E-04   -0.72780E-05  4016   0.189E-02    0.354E-02
DAV:   3    -0.338334432452E+03    0.77925E-05   -0.18921E-05  4032   0.175E-02    0.174E-02
DAV:   4    -0.338334436748E+03   -0.42956E-05   -0.84452E-06  2632   0.133E-02    0.294E-02
DAV:   5    -0.338334431869E+03    0.48790E-05   -0.62950E-06  2360   0.118E-02    0.134E-02
DAV:   6    -0.338334430955E+03    0.91337E-06   -0.19573E-06  2280   0.624E-03
  33 F= -.33833443E+03 E0= -.33821816E+03  d E =0.145232E-03
quench:  g(F)=  0.000E+00 g(S)=  0.000E+00 dE (1.order)= 0.000E+00
 bond charge predicted
       N       E                     dE             d eps       ncg     rms          rms(c)
DAV:   1    -0.338334277364E+03    0.15450E-03   -0.28487E-03  4000   0.736E-02    0.137E-02
DAV:   2    -0.338334290953E+03   -0.13589E-04   -0.75142E-05  4016   0.190E-02    0.325E-02
DAV:   3    -0.338334284555E+03    0.63979E-05   -0.17528E-05  3888   0.172E-02    0.189E-02
DAV:   4    -0.338334287050E+03   -0.24952E-05   -0.77022E-06  2440   0.128E-02    0.256E-02
DAV:   5    -0.338334283831E+03    0.32192E-05   -0.57382E-06  2504   0.111E-02    0.134E-02
DAV:   6    -0.338334282828E+03    0.10029E-05   -0.22363E-06  2280   0.689E-03    0.721E-03
DAV:   7    -0.338334282841E+03   -0.12740E-07   -0.13269E-06  2192   0.465E-03
  34 F= -.33833428E+03 E0= -.33821803E+03  d E =0.148114E-03
quench:  g(F)=  0.000E+00 g(S)=  0.000E+00 dE (1.order)= 0.000E+00
 bond charge predicted
       N       E                     dE             d eps       ncg     rms          rms(c)
DAV:   1    -0.338334125610E+03    0.15722E-03   -0.29767E-03  4000   0.750E-02    0.121E-02
DAV:   2    -0.338334132619E+03   -0.70090E-05   -0.64961E-05  4064   0.115E-02    0.137E-02
DAV:   3    -0.338334133986E+03   -0.13679E-05   -0.75588E-06  3376   0.125E-02    0.189E-02
DAV:   4    -0.338334137108E+03   -0.31216E-05   -0.76117E-06  2416   0.130E-02    0.285E-02
DAV:   5    -0.338334131443E+03    0.56651E-05   -0.48902E-06  2344   0.104E-02    0.762E-03
DAV:   6    -0.338334131460E+03   -0.16473E-07   -0.12261E-06  2184   0.430E-03
  35 F= -.33833413E+03 E0= -.33821787E+03  d E =0.151382E-03
quench:  g(F)=  0.000E+00 g(S)=  0.000E+00 dE (1.order)= 0.000E+00
 bond charge predicted
       N       E                     dE             d eps       ncg     rms          rms(c)
DAV:   1    -0.338333971689E+03    0.15975E-03   -0.31096E-03  4000   0.767E-02    0.136E-02
DAV:   2    -0.338333984293E+03   -0.12604E-04   -0.77660E-05  4008   0.183E-02    0.302E-02
DAV:   3    -0.338333979110E+03    0.51838E-05   -0.15849E-05  3944   0.165E-02    0.171E-02
DAV:   4    -0.338333982531E+03   -0.34214E-05   -0.79538E-06  2536   0.126E-02    0.272E-02
DAV:   5    -0.338333978929E+03    0.36023E-05   -0.66871E-06  2360   0.119E-02    0.156E-02
DAV:   6    -0.338333977517E+03    0.14111E-05   -0.25985E-06  2320   0.705E-03    0.634E-03
DAV:   7    -0.338333977495E+03    0.21922E-07   -0.94915E-07  2128   0.439E-03
  36 F= -.33833398E+03 E0= -.33821771E+03  d E =0.153964E-03
quench:  g(F)=  0.000E+00 g(S)=  0.000E+00 dE (1.order)= 0.000E+00
 bond charge predicted
       N       E                     dE             d eps       ncg     rms          rms(c)
DAV:   1    -0.338333814502E+03    0.16301E-03   -0.32402E-03  4000   0.782E-02    0.132E-02
DAV:   2    -0.338333825570E+03   -0.11067E-04   -0.75900E-05  4016   0.158E-02    0.250E-02
DAV:   3    -0.338333821686E+03    0.38839E-05   -0.13077E-05  3696   0.150E-02    0.137E-02
DAV:   4    -0.338333822370E+03   -0.68387E-06   -0.49239E-06  2520   0.876E-03    0.161E-02
DAV:   5    -0.338333821814E+03    0.55581E-06   -0.32261E-06  2312   0.835E-03
  37 F= -.33833382E+03 E0= -.33821757E+03  d E =0.155682E-03
quench:  g(F)=  0.000E+00 g(S)=  0.000E+00 dE (1.order)= 0.000E+00
 bond charge predicted
       N       E                     dE             d eps       ncg     rms          rms(c)
DAV:   1    -0.338333655560E+03    0.16681E-03   -0.33775E-03  4000   0.801E-02    0.148E-02
DAV:   2    -0.338333690098E+03   -0.34538E-04   -0.98208E-05  4072   0.263E-02    0.636E-02
DAV:   3    -0.338333666034E+03    0.24063E-04   -0.31545E-05  4096   0.257E-02    0.271E-02
DAV:   4    -0.338333663906E+03    0.21282E-05   -0.10654E-05  3152   0.138E-02    0.191E-02
DAV:   5    -0.338333662315E+03    0.15912E-05   -0.46088E-06  2448   0.858E-03    0.902E-03
DAV:   6    -0.338333661996E+03    0.31877E-06   -0.20031E-06  2272   0.658E-03
  38 F= -.33833366E+03 E0= -.33821740E+03  d E =0.159818E-03
quench:  g(F)=  0.000E+00 g(S)=  0.000E+00 dE (1.order)= 0.000E+00
 bond charge predicted
       N       E                     dE             d eps       ncg     rms          rms(c)
DAV:   1    -0.338333493795E+03    0.16852E-03   -0.35030E-03  4000   0.814E-02    0.145E-02
DAV:   2    -0.338333506951E+03   -0.13155E-04   -0.83770E-05  4016   0.176E-02    0.292E-02
DAV:   3    -0.338333501481E+03    0.54694E-05   -0.16834E-05  3984   0.169E-02    0.145E-02
DAV:   4    -0.338333503083E+03   -0.16019E-05   -0.54234E-06  2520   0.944E-03    0.203E-02
DAV:   5    -0.338333501037E+03    0.20459E-05   -0.35632E-06  2296   0.864E-03    0.116E-02
DAV:   6    -0.338333500429E+03    0.60828E-06   -0.14812E-06  2240   0.536E-03
  39 F= -.33833350E+03 E0= -.33821723E+03  d E =0.161567E-03
quench:  g(F)=  0.000E+00 g(S)=  0.000E+00 dE (1.order)= 0.000E+00
 bond charge predicted
       N       E                     dE             d eps       ncg     rms          rms(c)
DAV:   1    -0.338333330363E+03    0.17067E-03   -0.36249E-03  4000   0.827E-02    0.147E-02
DAV:   2    -0.338333345686E+03   -0.15322E-04   -0.91144E-05  4008   0.212E-02    0.340E-02
DAV:   3    -0.338333341238E+03    0.44474E-05   -0.18477E-05  4000   0.192E-02    0.264E-02
DAV:   4    -0.338333340656E+03    0.58189E-06   -0.10100E-05  2856   0.144E-02    0.244E-02
DAV:   5    -0.338333337942E+03    0.27144E-05   -0.70029E-06  2464   0.113E-02    0.139E-02
DAV:   6    -0.338333337070E+03    0.87154E-06   -0.27310E-06  2296   0.717E-03
  40 F= -.33833334E+03 E0= -.33821707E+03  d E =0.163359E-03
quench:  g(F)=  0.000E+00 g(S)=  0.000E+00 dE (1.order)= 0.000E+00
 bond charge predicted
       N       E                     dE             d eps       ncg     rms          rms(c)
DAV:   1    -0.338333164457E+03    0.17349E-03   -0.37575E-03  4000   0.842E-02    0.143E-02
DAV:   2    -0.338333176196E+03   -0.11739E-04   -0.85506E-05  4008   0.161E-02    0.254E-02
DAV:   3    -0.338333174378E+03    0.18173E-05   -0.13816E-05  3704   0.161E-02    0.213E-02
DAV:   4    -0.338333179645E+03   -0.52664E-05   -0.10847E-05  2536   0.154E-02    0.340E-02
DAV:   5    -0.338333171949E+03    0.76962E-05   -0.76436E-06  2448   0.125E-02    0.107E-02
DAV:   6    -0.338333171736E+03    0.21270E-06   -0.20471E-06  2304   0.611E-03
  41 F= -.33833317E+03 E0= -.33821690E+03  d E =0.165335E-03
quench:  g(F)=  0.000E+00 g(S)=  0.000E+00 dE (1.order)= 0.000E+00
 bond charge predicted
       N       E                     dE             d eps       ncg     rms          rms(c)
DAV:   1    -0.338332996962E+03    0.17499E-03   -0.38775E-03  4000   0.855E-02    0.155E-02
DAV:   2    -0.338333013824E+03   -0.16863E-04   -0.97062E-05  4016   0.211E-02    0.358E-02
DAV:   3    -0.338333006560E+03    0.72640E-05   -0.21428E-05  4152   0.196E-02    0.210E-02
DAV:   4    -0.338333011740E+03   -0.51793E-05   -0.11569E-05  2944   0.153E-02    0.336E-02
DAV:   5    -0.338333005184E+03    0.65560E-05   -0.87786E-06  2488   0.134E-02    0.144E-02
DAV:   6    -0.338333004189E+03    0.99422E-06   -0.26722E-06  2312   0.716E-03
  42 F= -.33833300E+03 E0= -.33821673E+03  d E =0.167547E-03
quench:  g(F)=  0.000E+00 g(S)=  0.000E+00 dE (1.order)= 0.000E+00
 bond charge predicted
       N       E                     dE             d eps       ncg     rms          rms(c)
DAV:   1    -0.338332826909E+03    0.17827E-03   -0.40108E-03  4000   0.869E-02    0.146E-02
DAV:   2    -0.338332838992E+03   -0.12083E-04   -0.90874E-05  4008   0.164E-02    0.255E-02
DAV:   3    -0.338332836758E+03    0.22339E-05   -0.14495E-05  3752   0.158E-02    0.197E-02
DAV:   4    -0.338332842892E+03   -0.61340E-05   -0.10476E-05  2568   0.150E-02    0.349E-02
DAV:   5    -0.338332835112E+03    0.77802E-05   -0.82600E-06  2440   0.132E-02    0.123E-02
DAV:   6    -0.338332834711E+03    0.40091E-06   -0.25290E-06  2320   0.687E-03
  43 F= -.33833283E+03 E0= -.33821657E+03  d E =0.169478E-03
quench:  g(F)=  0.000E+00 g(S)=  0.000E+00 dE (1.order)= 0.000E+00
 bond charge predicted
       N       E                     dE             d eps       ncg     rms          rms(c)
DAV:   1    -0.338332655547E+03    0.17957E-03   -0.41297E-03  4000   0.881E-02    0.158E-02
DAV:   2    -0.338332671881E+03   -0.16334E-04   -0.99387E-05  4016   0.202E-02    0.342E-02
DAV:   3    -0.338332665329E+03    0.65523E-05   -0.20211E-05  4128   0.190E-02    0.198E-02
DAV:   4    -0.338332671737E+03   -0.64080E-05   -0.11909E-05  2904   0.153E-02    0.352E-02
DAV:   5    -0.338332664516E+03    0.72209E-05   -0.92263E-06  2496   0.139E-02    0.156E-02
DAV:   6    -0.338332663190E+03    0.13263E-05   -0.26689E-06  2312   0.722E-03    0.720E-03
DAV:   7    -0.338332663185E+03    0.45329E-08   -0.13149E-06  2176   0.473E-03
  44 F= -.33833266E+03 E0= -.33821638E+03  d E =0.171526E-03
quench:  g(F)=  0.000E+00 g(S)=  0.000E+00 dE (1.order)= 0.000E+00
 bond charge predicted
       N       E                     dE             d eps       ncg     rms          rms(c)
DAV:   1    -0.338332481553E+03    0.18164E-03   -0.42466E-03  4000   0.892E-02    0.140E-02
DAV:   2    -0.338332491932E+03   -0.10379E-04   -0.92163E-05  4024   0.151E-02    0.185E-02
DAV:   3    -0.338332491457E+03    0.47504E-06   -0.11667E-05  3840   0.146E-02    0.169E-02
DAV:   4    -0.338332491282E+03    0.17483E-06   -0.61242E-06  2576   0.103E-02    0.167E-02
DAV:   5    -0.338332491025E+03    0.25758E-06   -0.39411E-06  2312   0.908E-03
  45 F= -.33833249E+03 E0= -.33821622E+03  d E =0.172161E-03
quench:  g(F)=  0.000E+00 g(S)=  0.000E+00 dE (1.order)= 0.000E+00
 bond charge predicted
       N       E                     dE             d eps       ncg     rms          rms(c)
DAV:   1    -0.338332306787E+03    0.18450E-03   -0.43803E-03  4000   0.909E-02    0.166E-02
DAV:   2    -0.338332349935E+03   -0.43148E-04   -0.12446E-04  4072   0.298E-02    0.706E-02
DAV:   3    -0.338332321040E+03    0.28895E-04   -0.40139E-05  4240   0.292E-02    0.324E-02
DAV:   4    -0.338332317054E+03    0.39857E-05   -0.14403E-05  3600   0.158E-02    0.205E-02
DAV:   5    -0.338332315769E+03    0.12851E-05   -0.64461E-06  2656   0.998E-03    0.128E-02
DAV:   6    -0.338332314753E+03    0.10161E-05   -0.25895E-06  2472   0.730E-03    0.623E-03
DAV:   7    -0.338332314974E+03   -0.22108E-06   -0.13321E-06  2176   0.523E-03
  46 F= -.33833231E+03 E0= -.33821604E+03  d E =0.176050E-03
quench:  g(F)=  0.000E+00 g(S)=  0.000E+00 dE (1.order)= 0.000E+00
 bond charge predicted
       N       E                     dE             d eps       ncg     rms          rms(c)
DAV:   1    -0.338332129622E+03    0.18513E-03   -0.44908E-03  4000   0.917E-02    0.147E-02
DAV:   2    -0.338332143081E+03   -0.13459E-04   -0.10004E-04  4008   0.171E-02    0.267E-02
DAV:   3    -0.338332142951E+03    0.12972E-06   -0.17326E-05  3840   0.177E-02    0.277E-02
DAV:   4    -0.338332144297E+03   -0.13453E-05   -0.12246E-05  2768   0.161E-02    0.299E-02
DAV:   5    -0.338332138761E+03    0.55361E-05   -0.68044E-06  2464   0.120E-02    0.125E-02
DAV:   6    -0.338332137894E+03    0.86628E-06   -0.19228E-06  2256   0.595E-03
  47 F= -.33833214E+03 E0= -.33821586E+03  d E =0.177080E-03
quench:  g(F)=  0.000E+00 g(S)=  0.000E+00 dE (1.order)= 0.000E+00
 bond charge predicted
       N       E                     dE             d eps       ncg     rms          rms(c)
DAV:   1    -0.338331951801E+03    0.18696E-03   -0.46149E-03  4000   0.929E-02    0.160E-02
DAV:   2    -0.338331970279E+03   -0.18478E-04   -0.11135E-04  4016   0.214E-02    0.367E-02
DAV:   3    -0.338331961339E+03    0.89406E-05   -0.23367E-05  4208   0.195E-02    0.162E-02
DAV:   4    -0.338331962271E+03   -0.93249E-06   -0.73177E-06  3048   0.105E-02    0.176E-02
DAV:   5    -0.338331960283E+03    0.19881E-05   -0.38901E-06  2456   0.843E-03    0.806E-03
DAV:   6    -0.338331960302E+03   -0.18583E-07   -0.17634E-06  2216   0.555E-03
  48 F= -.33833196E+03 E0= -.33821566E+03  d E =0.177593E-03
quench:  g(F)=  0.000E+00 g(S)=  0.000E+00 dE (1.order)= 0.000E+00
 bond charge predicted
       N       E                     dE             d eps       ncg     rms          rms(c)
DAV:   1    -0.338331773783E+03    0.18650E-03   -0.47394E-03  4000   0.944E-02    0.221E-02
DAV:   2    -0.338332165804E+03   -0.39202E-03   -0.35849E-04  4320   0.803E-02    0.232E-01
DAV:   3    -0.338331768734E+03    0.39707E-03   -0.25339E-04  4496   0.744E-02    0.161E-02
DAV:   4    -0.338331784199E+03   -0.15465E-04   -0.15518E-05  4120   0.147E-02    0.222E-02
DAV:   5    -0.338331781677E+03    0.25223E-05   -0.75579E-06  3072   0.114E-02    0.132E-02
DAV:   6    -0.338331780777E+03    0.89955E-06   -0.24669E-06  2360   0.636E-03
  49 F= -.33833178E+03 E0= -.33821549E+03  d E =0.179525E-03
quench:  g(F)=  0.000E+00 g(S)=  0.000E+00 dE (1.order)= 0.000E+00
 bond charge predicted
       N       E                     dE             d eps       ncg     rms          rms(c)
DAV:   1    -0.338331591266E+03    0.19041E-03   -0.48547E-03  4000   0.953E-02    0.163E-02
DAV:   2    -0.338331611066E+03   -0.19800E-04   -0.11691E-04  4016   0.224E-02    0.382E-02
DAV:   3    -0.338331603002E+03    0.80634E-05   -0.24851E-05  4232   0.209E-02    0.230E-02
DAV:   4    -0.338331608104E+03   -0.51014E-05   -0.12667E-05  2824   0.163E-02    0.348E-02
DAV:   5    -0.338331601206E+03    0.68979E-05   -0.93820E-06  2640   0.137E-02    0.152E-02
DAV:   6    -0.338331600054E+03    0.11518E-05   -0.28540E-06  2352   0.760E-03    0.768E-03
DAV:   7    -0.338331600079E+03   -0.25146E-07   -0.14409E-06  2176   0.520E-03
  50 F= -.33833160E+03 E0= -.33821530E+03  d E =0.180698E-03
quench:  g(F)=  0.000E+00 g(S)=  0.000E+00 dE (1.order)= 0.000E+00
 bond charge predicted
       N       E                     dE             d eps       ncg     rms          rms(c)
DAV:   1    -0.338331408878E+03    0.19118E-03   -0.49691E-03  4000   0.964E-02    0.158E-02
DAV:   2    -0.338331425543E+03   -0.16665E-04   -0.11317E-04  4008   0.201E-02    0.307E-02
DAV:   3    -0.338331419241E+03    0.63017E-05   -0.19154E-05  4096   0.185E-02    0.155E-02
DAV:   4    -0.338331424983E+03   -0.57412E-05   -0.94994E-06  2776   0.134E-02    0.323E-02
DAV:   5    -0.338331418632E+03    0.63510E-05   -0.66590E-06  2368   0.123E-02    0.125E-02
DAV:   6    -0.338331417895E+03    0.73665E-06   -0.17834E-06  2312   0.614E-03
  51 F= -.33833142E+03 E0= -.33821513E+03  d E =0.182184E-03
quench:  g(F)=  0.000E+00 g(S)=  0.000E+00 dE (1.order)= 0.000E+00
 bond charge predicted
       N       E                     dE             d eps       ncg     rms          rms(c)
DAV:   1    -0.338331225524E+03    0.19311E-03   -0.50904E-03  4000   0.976E-02    0.162E-02
DAV:   2    -0.338331244962E+03   -0.19438E-04   -0.11957E-04  4016   0.212E-02    0.383E-02
DAV:   3    -0.338331236347E+03    0.86148E-05   -0.24415E-05  4192   0.193E-02    0.179E-02
DAV:   4    -0.338331236239E+03    0.10804E-06   -0.66357E-06  3048   0.103E-02    0.147E-02
DAV:   5    -0.338331236020E+03    0.21892E-06   -0.41990E-06  2432   0.941E-03
  52 F= -.33833124E+03 E0= -.33821495E+03  d E =0.181875E-03
quench:  g(F)=  0.000E+00 g(S)=  0.000E+00 dE (1.order)= 0.000E+00
 bond charge predicted
       N       E                     dE             d eps       ncg     rms          rms(c)
DAV:   1    -0.338331041669E+03    0.19457E-03   -0.52192E-03  4000   0.991E-02    0.201E-02
DAV:   2    -0.338331228820E+03   -0.18715E-03   -0.23662E-04  4184   0.565E-02    0.159E-01
DAV:   3    -0.338331048320E+03    0.18050E-03   -0.13493E-04  4320   0.536E-02    0.240E-02
DAV:   4    -0.338331053673E+03   -0.53530E-05   -0.16424E-05  4152   0.161E-02    0.224E-02
DAV:   5    -0.338331051237E+03    0.24365E-05   -0.69962E-06  2912   0.107E-02    0.125E-02
DAV:   6    -0.338331050687E+03    0.54992E-06   -0.32772E-06  2464   0.749E-03
  53 F= -.33833105E+03 E0= -.33821476E+03  d E =0.185333E-03
quench:  g(F)=  0.000E+00 g(S)=  0.000E+00 dE (1.order)= 0.000E+00
 bond charge predicted
       N       E                     dE             d eps       ncg     rms          rms(c)
DAV:   1    -0.338330854994E+03    0.19624E-03   -0.53326E-03  4000   0.100E-01    0.169E-02
DAV:   2    -0.338330872749E+03   -0.17755E-04   -0.12026E-04  4008   0.203E-02    0.334E-02
DAV:   3    -0.338330867110E+03    0.56391E-05   -0.22776E-05  4208   0.195E-02    0.207E-02
DAV:   4    -0.338330868411E+03   -0.13011E-05   -0.99595E-06  3160   0.124E-02    0.237E-02
DAV:   5    -0.338330867176E+03    0.12344E-05   -0.55057E-06  2432   0.115E-02    0.199E-02
DAV:   6    -0.338330864614E+03    0.25627E-05   -0.32303E-06  2320   0.796E-03    0.666E-03
DAV:   7    -0.338330864982E+03   -0.36813E-06   -0.15367E-06  2200   0.509E-03
  54 F= -.33833086E+03 E0= -.33821456E+03  d E =0.185705E-03
quench:  g(F)=  0.000E+00 g(S)=  0.000E+00 dE (1.order)= 0.000E+00
 bond charge predicted
       N       E                     dE             d eps       ncg     rms          rms(c)
DAV:   1    -0.338330667879E+03    0.19674E-03   -0.54376E-03  4000   0.101E-01    0.158E-02
DAV:   2    -0.338330682628E+03   -0.14749E-04   -0.11919E-04  4008   0.191E-02    0.248E-02
DAV:   3    -0.338330679619E+03    0.30083E-05   -0.15468E-05  4064   0.172E-02    0.177E-02
DAV:   4    -0.338330684556E+03   -0.49367E-05   -0.10763E-05  2968   0.142E-02    0.313E-02
DAV:   5    -0.338330678992E+03    0.55639E-05   -0.77677E-06  2400   0.130E-02    0.149E-02
DAV:   6    -0.338330677708E+03    0.12842E-05   -0.22147E-06  2296   0.695E-03    0.698E-03
DAV:   7    -0.338330677761E+03   -0.53456E-07   -0.12349E-06  2160   0.443E-03
  55 F= -.33833068E+03 E0= -.33821438E+03  d E =0.187220E-03
quench:  g(F)=  0.000E+00 g(S)=  0.000E+00 dE (1.order)= 0.000E+00
 bond charge predicted
       N       E                     dE             d eps       ncg     rms          rms(c)
DAV:   1    -0.338330479223E+03    0.19848E-03   -0.55639E-03  4000   0.102E-01    0.162E-02
DAV:   2    -0.338330498088E+03   -0.18865E-04   -0.12552E-04  4016   0.208E-02    0.345E-02
DAV:   3    -0.338330492172E+03    0.59160E-05   -0.23207E-05  4136   0.197E-02    0.220E-02
DAV:   4    -0.338330500030E+03   -0.78576E-05   -0.13390E-05  3040   0.170E-02    0.395E-02
DAV:   5    -0.338330490492E+03    0.95377E-05   -0.10346E-05  2552   0.151E-02    0.153E-02
DAV:   6    -0.338330489194E+03    0.12982E-05   -0.26528E-06  2320   0.696E-03    0.559E-03
DAV:   7    -0.338330489506E+03   -0.31210E-06   -0.11991E-06  2168   0.451E-03
  56 F= -.33833049E+03 E0= -.33821418E+03  d E =0.188255E-03
quench:  g(F)=  0.000E+00 g(S)=  0.000E+00 dE (1.order)= 0.000E+00
 bond charge predicted
       N       E                     dE             d eps       ncg     rms          rms(c)
DAV:   1    -0.338330289760E+03    0.19943E-03   -0.56722E-03  4000   0.103E-01    0.158E-02
DAV:   2    -0.338330304362E+03   -0.14602E-04   -0.12179E-04  4008   0.179E-02    0.238E-02
DAV:   3    -0.338330302526E+03    0.18359E-05   -0.16374E-05  3976   0.170E-02    0.192E-02
DAV:   4    -0.338330306033E+03   -0.35069E-05   -0.10213E-05  2816   0.136E-02    0.293E-02
DAV:   5    -0.338330301036E+03    0.49976E-05   -0.65864E-06  2384   0.120E-02    0.135E-02
DAV:   6    -0.338330300259E+03    0.77720E-06   -0.22006E-06  2312   0.665E-03
  57 F= -.33833030E+03 E0= -.33821400E+03  d E =0.189248E-03
quench:  g(F)=  0.000E+00 g(S)=  0.000E+00 dE (1.order)= 0.000E+00
 bond charge predicted
       N       E                     dE             d eps       ncg     rms          rms(c)
DAV:   1    -0.338330100533E+03    0.20050E-03   -0.57825E-03  4000   0.104E-01    0.168E-02
DAV:   2    -0.338330117961E+03   -0.17428E-04   -0.12733E-04  4008   0.193E-02    0.314E-02
DAV:   3    -0.338330114760E+03    0.32004E-05   -0.23198E-05  4120   0.192E-02    0.244E-02
DAV:   4    -0.338330123509E+03   -0.87485E-05   -0.15206E-05  3064   0.179E-02    0.424E-02
DAV:   5    -0.338330111546E+03    0.11963E-04   -0.10639E-05  2576   0.153E-02    0.125E-02
DAV:   6    -0.338330111197E+03    0.34901E-06   -0.25414E-06  2312   0.676E-03
  58 F= -.33833011E+03 E0= -.33821380E+03  d E =0.189062E-03
quench:  g(F)=  0.000E+00 g(S)=  0.000E+00 dE (1.order)= 0.000E+00
 bond charge predicted
       N       E                     dE             d eps       ncg     rms          rms(c)
DAV:   1    -0.338329913631E+03    0.19791E-03   -0.58183E-03  4000   0.104E-01    0.170E-02
DAV:   2    -0.338329931094E+03   -0.17463E-04   -0.12908E-04  4016   0.206E-02    0.304E-02
DAV:   3    -0.338329926193E+03    0.49015E-05   -0.21144E-05  4176   0.189E-02    0.194E-02
DAV:   4    -0.338329926935E+03   -0.74289E-06   -0.94374E-06  3136   0.123E-02    0.207E-02
DAV:   5    -0.338329926938E+03   -0.28958E-08   -0.64898E-06  2344   0.118E-02
  59 F= -.33832993E+03 E0= -.33821365E+03  d E =0.184258E-03
quench:  g(F)=  0.000E+00 g(S)=  0.000E+00 dE (1.order)= 0.000E+00
 bond charge predicted
       N       E                     dE             d eps       ncg     rms          rms(c)
DAV:   1    -0.338329733972E+03    0.19296E-03   -0.57453E-03  4000   0.104E-01    0.193E-02
DAV:   2    -0.338329790003E+03   -0.56031E-04   -0.16634E-04  4064   0.343E-02    0.815E-02
DAV:   3    -0.338329754023E+03    0.35980E-04   -0.57542E-05  4312   0.340E-02    0.400E-02
DAV:   4    -0.338329746528E+03    0.74952E-05   -0.19542E-05  3976   0.188E-02    0.220E-02
DAV:   5    -0.338329745280E+03    0.12474E-05   -0.76290E-06  2992   0.108E-02    0.144E-02
DAV:   6    -0.338329744015E+03    0.12654E-05   -0.35146E-06  2464   0.834E-03    0.802E-03
DAV:   7    -0.338329744294E+03   -0.27897E-06   -0.20248E-06  2352   0.609E-03
  60 F= -.33832974E+03 E0= -.33821343E+03  d E =0.182644E-03
quench:  g(F)=  0.000E+00 g(S)=  0.000E+00 dE (1.order)= 0.000E+00
 bond charge predicted
       N       E                     dE             d eps       ncg     rms          rms(c)
DAV:   1    -0.338329567436E+03    0.17658E-03   -0.51957E-03  4000   0.972E-02    0.167E-02
DAV:   2    -0.338329581760E+03   -0.14324E-04   -0.11258E-04  4032   0.185E-02    0.282E-02
DAV:   3    -0.338329581119E+03    0.64100E-06   -0.16284E-05  4176   0.184E-02    0.278E-02
DAV:   4    -0.338329585147E+03   -0.40279E-05   -0.15297E-05  2936   0.177E-02    0.350E-02
DAV:   5    -0.338329577534E+03    0.76124E-05   -0.10400E-05  2592   0.143E-02    0.157E-02
DAV:   6    -0.338329576318E+03    0.12166E-05   -0.29845E-06  2424   0.753E-03    0.775E-03
DAV:   7    -0.338329576294E+03    0.23181E-07   -0.14260E-06  2216   0.521E-03
  61 F= -.33832958E+03 E0= -.33821328E+03  d E =0.168000E-03
quench:  g(F)=  0.000E+00 g(S)=  0.000E+00 dE (1.order)= 0.000E+00
 bond charge predicted
       N       E                     dE             d eps       ncg     rms          rms(c)
DAV:   1    -0.338329455465E+03    0.12085E-03   -0.31377E-03  4000   0.728E-02    0.169E-02
DAV:   2    -0.338329473963E+03   -0.18498E-04   -0.85332E-05  4024   0.244E-02    0.439E-02
DAV:   3    -0.338329466357E+03    0.76062E-05   -0.28929E-05  4208   0.238E-02    0.337E-02
DAV:   4    -0.338329462845E+03    0.35116E-05   -0.13389E-05  3256   0.167E-02    0.253E-02
DAV:   5    -0.338329460141E+03    0.27038E-05   -0.81625E-06  2880   0.118E-02    0.143E-02
DAV:   6    -0.338329459777E+03    0.36393E-06   -0.45821E-06  2488   0.903E-03
  62 F= -.33832946E+03 E0= -.33821317E+03  d E =0.116517E-03
quench:  g(F)=  0.000E+00 g(S)=  0.000E+00 dE (1.order)= 0.000E+00
 bond charge predicted
       N       E                     dE             d eps       ncg     rms          rms(c)
DAV:   1    -0.338329411234E+03    0.48907E-04   -0.78367E-04  4000   0.359E-02    0.108E-02
DAV:   2    -0.338329421526E+03   -0.10292E-04   -0.30899E-05  4136   0.184E-02    0.350E-02
DAV:   3    -0.338329413841E+03    0.76857E-05   -0.16631E-05  3584   0.170E-02    0.183E-02
DAV:   4    -0.338329413306E+03    0.53460E-06   -0.43628E-06  2384   0.941E-03    0.153E-02
DAV:   5    -0.338329412117E+03    0.11890E-05   -0.25906E-06  2312   0.713E-03    0.767E-03
DAV:   6    -0.338329412151E+03   -0.33782E-07   -0.15674E-06  2200   0.499E-03
  63 F= -.33832941E+03 E0= -.33821312E+03  d E =0.476265E-04
quench:  g(F)=  0.000E+00 g(S)=  0.000E+00 dE (1.order)= 0.000E+00
 bond charge predicted
       N       E                     dE             d eps       ncg     rms          rms(c)
DAV:   1    -0.338329358430E+03    0.53687E-04   -0.52767E-04  4008   0.315E-02    0.603E-03
DAV:   2    -0.338329361537E+03   -0.31063E-05   -0.14428E-05  3864   0.969E-03    0.165E-02
DAV:   3    -0.338329359495E+03    0.20417E-05   -0.39237E-06  2432   0.837E-03    0.674E-03
DAV:   4    -0.338329359843E+03   -0.34784E-06   -0.13954E-06  2152   0.476E-03    0.940E-03
DAV:   5    -0.338329359742E+03    0.10074E-06   -0.10951E-06  2208   0.485E-03
  64 F= -.33832936E+03 E0= -.33821307E+03  d E =0.524090E-04
quench:  g(F)=  0.000E+00 g(S)=  0.000E+00 dE (1.order)= 0.000E+00
 bond charge predicted
       N       E                     dE             d eps       ncg     rms          rms(c)
DAV:   1    -0.338329304496E+03    0.55347E-04   -0.55376E-04  4000   0.322E-02    0.584E-03
DAV:   2    -0.338329308514E+03   -0.40182E-05   -0.14582E-05  3840   0.963E-03    0.201E-02
DAV:   3    -0.338329306467E+03    0.20469E-05   -0.41512E-06  2352   0.947E-03    0.128E-02
DAV:   4    -0.338329305684E+03    0.78310E-06   -0.17579E-06  2256   0.573E-03    0.671E-03
DAV:   5    -0.338329305644E+03    0.40076E-07   -0.90449E-07  2096   0.370E-03
  65 F= -.33832931E+03 E0= -.33821300E+03  d E =0.540980E-04
quench:  g(F)=  0.000E+00 g(S)=  0.000E+00 dE (1.order)= 0.000E+00
 bond charge predicted
       N       E                     dE             d eps       ncg     rms          rms(c)
DAV:   1    -0.338329249124E+03    0.56560E-04   -0.58097E-04  4000   0.329E-02    0.605E-03
DAV:   2    -0.338329252598E+03   -0.34741E-05   -0.15362E-05  3856   0.947E-03    0.182E-02
DAV:   3    -0.338329250514E+03    0.20846E-05   -0.41820E-06  2352   0.866E-03    0.886E-03
DAV:   4    -0.338329250947E+03   -0.43357E-06   -0.17299E-06  2248   0.585E-03    0.114E-02
DAV:   5    -0.338329250273E+03    0.67407E-06   -0.11193E-06  2184   0.464E-03
  66 F= -.33832925E+03 E0= -.33821294E+03  d E =0.553708E-04
quench:  g(F)=  0.000E+00 g(S)=  0.000E+00 dE (1.order)= 0.000E+00
 bond charge predicted
       N       E                     dE             d eps       ncg     rms          rms(c)
DAV:   1    -0.338329192293E+03    0.58654E-04   -0.60840E-04  4000   0.337E-02    0.629E-03
DAV:   2    -0.338329196467E+03   -0.41740E-05   -0.16633E-05  3920   0.102E-02    0.204E-02
DAV:   3    -0.338329193645E+03    0.28225E-05   -0.45600E-06  2392   0.907E-03    0.818E-03
DAV:   4    -0.338329194182E+03   -0.53751E-06   -0.16973E-06  2256   0.574E-03    0.115E-02
DAV:   5    -0.338329193542E+03    0.64004E-06   -0.13280E-06  2208   0.504E-03
  67 F= -.33832919E+03 E0= -.33821289E+03  d E =0.567307E-04
quench:  g(F)=  0.000E+00 g(S)=  0.000E+00 dE (1.order)= 0.000E+00
 bond charge predicted
       N       E                     dE             d eps       ncg     rms          rms(c)
DAV:   1    -0.338329134034E+03    0.60149E-04   -0.63729E-04  4000   0.345E-02    0.653E-03
DAV:   2    -0.338329138221E+03   -0.41875E-05   -0.17709E-05  3960   0.106E-02    0.204E-02
DAV:   3    -0.338329135221E+03    0.30006E-05   -0.50908E-06  2488   0.927E-03    0.642E-03
DAV:   4    -0.338329136264E+03   -0.10429E-05   -0.18524E-06  2280   0.569E-03    0.133E-02
DAV:   5    -0.338329135344E+03    0.91954E-06   -0.14162E-06  2232   0.547E-03
  68 F= -.33832914E+03 E0= -.33821283E+03  d E =0.581983E-04
quench:  g(F)=  0.000E+00 g(S)=  0.000E+00 dE (1.order)= 0.000E+00
 bond charge predicted
       N       E                     dE             d eps       ncg     rms          rms(c)
DAV:   1    -0.338329074308E+03    0.61956E-04   -0.66695E-04  4000   0.353E-02    0.679E-03
DAV:   2    -0.338329080340E+03   -0.60328E-05   -0.19529E-05  3952   0.121E-02    0.257E-02
DAV:   3    -0.338329076706E+03    0.36349E-05   -0.63334E-06  2520   0.115E-02    0.144E-02
DAV:   4    -0.338329075696E+03    0.10091E-05   -0.23083E-06  2296   0.652E-03    0.751E-03
DAV:   5    -0.338329075652E+03    0.43940E-07   -0.11438E-06  2136   0.423E-03
  69 F= -.33832908E+03 E0= -.33821278E+03  d E =0.596915E-04
quench:  g(F)=  0.000E+00 g(S)=  0.000E+00 dE (1.order)= 0.000E+00
 bond charge predicted
       N       E                     dE             d eps       ncg     rms          rms(c)
DAV:   1    -0.338329013132E+03    0.62564E-04   -0.69796E-04  4000   0.361E-02    0.685E-03
DAV:   2    -0.338329017791E+03   -0.46593E-05   -0.19466E-05  3976   0.112E-02    0.214E-02
DAV:   3    -0.338329014563E+03    0.32284E-05   -0.55818E-06  2544   0.991E-03    0.808E-03
DAV:   4    -0.338329015619E+03   -0.10556E-05   -0.21716E-06  2256   0.642E-03    0.142E-02
DAV:   5    -0.338329014491E+03    0.11277E-05   -0.15419E-06  2224   0.561E-03    0.605E-03
DAV:   6    -0.338329014347E+03    0.14394E-06   -0.57071E-07  2080   0.323E-03
  70 F= -.33832901E+03 E0= -.33821272E+03  d E =0.613055E-04
quench:  g(F)=  0.000E+00 g(S)=  0.000E+00 dE (1.order)= 0.000E+00
 bond charge predicted
       N       E                     dE             d eps       ncg     rms          rms(c)
DAV:   1    -0.338328950253E+03    0.64238E-04   -0.73007E-04  4000   0.369E-02    0.589E-03
DAV:   2    -0.338328951882E+03   -0.16296E-05   -0.14968E-05  3824   0.540E-03    0.704E-03
DAV:   3    -0.338328952552E+03   -0.66965E-06   -0.21647E-06  2336   0.644E-03    0.118E-02
DAV:   4    -0.338328952988E+03   -0.43607E-06   -0.20119E-06  2264   0.670E-03    0.141E-02
DAV:   5    -0.338328951592E+03    0.13962E-05   -0.11767E-06  2208   0.487E-03    0.305E-03
DAV:   6    -0.338328951629E+03   -0.37326E-07   -0.25761E-07  2048   0.207E-03
  71 F= -.33832895E+03 E0= -.33821265E+03  d E =0.627180E-04
quench:  g(F)=  0.000E+00 g(S)=  0.000E+00 dE (1.order)= 0.000E+00
 bond charge predicted
       N       E                     dE             d eps       ncg     rms          rms(c)
DAV:   1    -0.338328886108E+03    0.65484E-04   -0.76124E-04  4000   0.377E-02    0.635E-03
DAV:   2    -0.338328888752E+03   -0.26446E-05   -0.17891E-05  3944   0.877E-03    0.128E-02
DAV:   3    -0.338328887778E+03    0.97485E-06   -0.33743E-06  2432   0.771E-03    0.790E-03
DAV:   4    -0.338328887676E+03    0.10162E-06   -0.14751E-06  2120   0.465E-03    0.638E-03
DAV:   5    -0.338328888059E+03   -0.38334E-06   -0.90486E-07  2184   0.452E-03
  72 F= -.33832889E+03 E0= -.33821258E+03  d E =0.635698E-04
quench:  g(F)=  0.000E+00 g(S)=  0.000E+00 dE (1.order)= 0.000E+00
 bond charge predicted
       N       E                     dE             d eps       ncg     rms          rms(c)
DAV:   1    -0.338328820296E+03    0.67380E-04   -0.79652E-04  4000   0.388E-02    0.688E-03
DAV:   2    -0.338328829837E+03   -0.95411E-05   -0.23893E-05  3992   0.136E-02    0.335E-02
DAV:   3    -0.338328822640E+03    0.71971E-05   -0.85416E-06  2544   0.132E-02    0.131E-02
DAV:   4    -0.338328822022E+03    0.61790E-06   -0.23133E-06  2328   0.661E-03    0.784E-03
DAV:   5    -0.338328821887E+03    0.13561E-06   -0.10084E-06  2080   0.385E-03
  73 F= -.33832882E+03 E0= -.33821252E+03  d E =0.661724E-04
quench:  g(F)=  0.000E+00 g(S)=  0.000E+00 dE (1.order)= 0.000E+00
 bond charge predicted
       N       E                     dE             d eps       ncg     rms          rms(c)
DAV:   1    -0.338328753209E+03    0.68814E-04   -0.83126E-04  4000   0.395E-02    0.689E-03
DAV:   2    -0.338328757348E+03   -0.41387E-05   -0.20682E-05  3944   0.995E-03    0.193E-02
DAV:   3    -0.338328755578E+03    0.17693E-05   -0.51341E-06  2416   0.959E-03    0.123E-02
DAV:   4    -0.338328755542E+03    0.36664E-07   -0.23067E-06  2272   0.694E-03    0.117E-02
DAV:   5    -0.338328754857E+03    0.68467E-06   -0.13997E-06  2168   0.502E-03
  74 F= -.33832875E+03 E0= -.33821244E+03  d E =0.670300E-04
quench:  g(F)=  0.000E+00 g(S)=  0.000E+00 dE (1.order)= 0.000E+00
 bond charge predicted
       N       E                     dE             d eps       ncg     rms          rms(c)
DAV:   1    -0.338328684575E+03    0.70967E-04   -0.86599E-04  4000   0.404E-02    0.727E-03
DAV:   2    -0.338328689672E+03   -0.50974E-05   -0.22766E-05  3976   0.112E-02    0.217E-02
DAV:   3    -0.338328686150E+03    0.35217E-05   -0.58025E-06  2608   0.980E-03    0.622E-03
DAV:   4    -0.338328686937E+03   -0.78649E-06   -0.18413E-06  2272   0.534E-03    0.114E-02
DAV:   5    -0.338328686599E+03    0.33772E-06   -0.14045E-06  2232   0.559E-03
  75 F= -.33832869E+03 E0= -.33821240E+03  d E =0.682579E-04
quench:  g(F)=  0.000E+00 g(S)=  0.000E+00 dE (1.order)= 0.000E+00
 bond charge predicted
       N       E                     dE             d eps       ncg     rms          rms(c)
DAV:   1    -0.338328614603E+03    0.72334E-04   -0.90393E-04  4000   0.414E-02    0.760E-03
DAV:   2    -0.338328623903E+03   -0.93004E-05   -0.26582E-05  4008   0.140E-02    0.329E-02
DAV:   3    -0.338328617718E+03    0.61854E-05   -0.92391E-06  2560   0.138E-02    0.159E-02
DAV:   4    -0.338328616574E+03    0.11440E-05   -0.30895E-06  2344   0.759E-03    0.879E-03
DAV:   5    -0.338328616400E+03    0.17372E-06   -0.14157E-06  2128   0.460E-03
  76 F= -.33832862E+03 E0= -.33821231E+03  d E =0.701988E-04
quench:  g(F)=  0.000E+00 g(S)=  0.000E+00 dE (1.order)= 0.000E+00
 bond charge predicted
       N       E                     dE             d eps       ncg     rms          rms(c)
DAV:   1    -0.338328542677E+03    0.73897E-04   -0.94112E-04  4000   0.422E-02    0.764E-03
DAV:   2    -0.338328548625E+03   -0.59479E-05   -0.25330E-05  4024   0.121E-02    0.237E-02
DAV:   3    -0.338328544905E+03    0.37194E-05   -0.70829E-06  2680   0.109E-02    0.109E-02
DAV:   4    -0.338328545598E+03   -0.69287E-06   -0.26573E-06  2312   0.737E-03    0.141E-02
DAV:   5    -0.338328544561E+03    0.10368E-05   -0.16440E-06  2232   0.578E-03    0.664E-03
DAV:   6    -0.338328544392E+03    0.16920E-06   -0.68149E-07  2080   0.342E-03
  77 F= -.33832854E+03 E0= -.33821224E+03  d E =0.720080E-04
quench:  g(F)=  0.000E+00 g(S)=  0.000E+00 dE (1.order)= 0.000E+00
 bond charge predicted
       N       E                     dE             d eps       ncg     rms          rms(c)
DAV:   1    -0.338328469458E+03    0.75104E-04   -0.98018E-04  4000   0.430E-02    0.677E-03
DAV:   2    -0.338328471795E+03   -0.23369E-05   -0.20560E-05  3912   0.662E-03    0.897E-03
DAV:   3    -0.338328472658E+03   -0.86293E-06   -0.33655E-06  2416   0.774E-03    0.145E-02
DAV:   4    -0.338328472837E+03   -0.17940E-06   -0.27901E-06  2264   0.786E-03    0.151E-02
DAV:   5    -0.338328471297E+03    0.15400E-05   -0.14818E-06  2232   0.552E-03    0.398E-03
DAV:   6    -0.338328471300E+03   -0.27940E-08   -0.33624E-07  2056   0.241E-03
  78 F= -.33832847E+03 E0= -.33821216E+03  d E =0.730924E-04
quench:  g(F)=  0.000E+00 g(S)=  0.000E+00 dE (1.order)= 0.000E+00
 bond charge predicted
       N       E                     dE             d eps       ncg     rms          rms(c)
DAV:   1    -0.338328395004E+03    0.76292E-04   -0.10199E-03  4000   0.439E-02    0.740E-03
DAV:   2    -0.338328398992E+03   -0.39876E-05   -0.24395E-05  3984   0.103E-02    0.165E-02
DAV:   3    -0.338328397212E+03    0.17802E-05   -0.48295E-06  2592   0.908E-03    0.896E-03
DAV:   4    -0.338328397823E+03   -0.61133E-06   -0.23691E-06  2272   0.632E-03    0.124E-02
DAV:   5    -0.338328397279E+03    0.54417E-06   -0.16115E-06  2240   0.596E-03
  79 F= -.33832840E+03 E0= -.33821210E+03  d E =0.740207E-04
quench:  g(F)=  0.000E+00 g(S)=  0.000E+00 dE (1.order)= 0.000E+00
 bond charge predicted
       N       E                     dE             d eps       ncg     rms          rms(c)
DAV:   1    -0.338328319192E+03    0.78632E-04   -0.10618E-03  4000   0.450E-02    0.798E-03
DAV:   2    -0.338328326336E+03   -0.71447E-05   -0.28856E-05  4024   0.129E-02    0.272E-02
DAV:   3    -0.338328322548E+03    0.37886E-05   -0.84362E-06  2640   0.124E-02    0.155E-02
DAV:   4    -0.338328321807E+03    0.74042E-06   -0.31812E-06  2312   0.796E-03    0.113E-02
DAV:   5    -0.338328321313E+03    0.49466E-06   -0.15297E-06  2144   0.501E-03
  80 F= -.33832832E+03 E0= -.33821201E+03  d E =0.759664E-04
quench:  g(F)=  0.000E+00 g(S)=  0.000E+00 dE (1.order)= 0.000E+00
 bond charge predicted
       N       E                     dE             d eps       ncg     rms          rms(c)
DAV:   1    -0.338328241793E+03    0.80014E-04   -0.11049E-03  4000   0.459E-02    0.796E-03
DAV:   2    -0.338328247246E+03   -0.54528E-05   -0.27649E-05  4008   0.116E-02    0.213E-02
DAV:   3    -0.338328244380E+03    0.28657E-05   -0.65085E-06  2640   0.105E-02    0.110E-02
DAV:   4    -0.338328245613E+03   -0.12326E-05   -0.30882E-06  2320   0.798E-03    0.166E-02
DAV:   5    -0.338328244010E+03    0.16029E-05   -0.20672E-06  2256   0.663E-03    0.682E-03
DAV:   6    -0.338328243858E+03    0.15192E-06   -0.73842E-07  2096   0.361E-03
  81 F= -.33832824E+03 E0= -.33821193E+03  d E =0.774546E-04
quench:  g(F)=  0.000E+00 g(S)=  0.000E+00 dE (1.order)= 0.000E+00
 bond charge predicted
       N       E                     dE             d eps       ncg     rms          rms(c)
DAV:   1    -0.338328162867E+03    0.81143E-04   -0.11491E-03  4000   0.467E-02    0.734E-03
DAV:   2    -0.338328165809E+03   -0.29428E-05   -0.24488E-05  3952   0.748E-03    0.109E-02
DAV:   3    -0.338328166370E+03   -0.56066E-06   -0.40814E-06  2448   0.840E-03    0.146E-02
DAV:   4    -0.338328167116E+03   -0.74557E-06   -0.32755E-06  2288   0.852E-03    0.175E-02
DAV:   5    -0.338328164999E+03    0.21170E-05   -0.18475E-06  2256   0.622E-03    0.406E-03
DAV:   6    -0.338328165045E+03   -0.46020E-07   -0.38642E-07  2072   0.253E-03
  82 F= -.33832817E+03 E0= -.33821185E+03  d E =0.788133E-04
quench:  g(F)=  0.000E+00 g(S)=  0.000E+00 dE (1.order)= 0.000E+00
 bond charge predicted
       N       E                     dE             d eps       ncg     rms          rms(c)
DAV:   1    -0.338328082769E+03    0.82230E-04   -0.11928E-03  4000   0.476E-02    0.791E-03
DAV:   2    -0.338328086777E+03   -0.40089E-05   -0.27769E-05  4008   0.105E-02    0.151E-02
DAV:   3    -0.338328085419E+03    0.13582E-05   -0.47840E-06  2704   0.922E-03    0.991E-03
DAV:   4    -0.338328085535E+03   -0.11575E-06   -0.25504E-06  2256   0.621E-03    0.999E-03
DAV:   5    -0.338328085842E+03   -0.30667E-06   -0.16977E-06  2264   0.610E-03
  83 F= -.33832809E+03 E0= -.33821179E+03  d E =0.792030E-04
quench:  g(F)=  0.000E+00 g(S)=  0.000E+00 dE (1.order)= 0.000E+00
 bond charge predicted
       N       E                     dE             d eps       ncg     rms          rms(c)
DAV:   1    -0.338328001287E+03    0.84248E-04   -0.12409E-03  4000   0.488E-02    0.827E-03
DAV:   2    -0.338328008827E+03   -0.75401E-05   -0.31644E-05  4016   0.127E-02    0.275E-02
DAV:   3    -0.338328005369E+03    0.34584E-05   -0.82132E-06  2624   0.128E-02    0.170E-02
DAV:   4    -0.338328004391E+03    0.97789E-06   -0.37970E-06  2352   0.859E-03    0.117E-02
DAV:   5    -0.338328003781E+03    0.60982E-06   -0.16378E-06  2160   0.509E-03
  84 F= -.33832800E+03 E0= -.33821169E+03  d E =0.820606E-04
quench:  g(F)=  0.000E+00 g(S)=  0.000E+00 dE (1.order)= 0.000E+00
 bond charge predicted
       N       E                     dE             d eps       ncg     rms          rms(c)
DAV:   1    -0.338327918449E+03    0.85942E-04   -0.12884E-03  4000   0.496E-02    0.850E-03
DAV:   2    -0.338327924699E+03   -0.62503E-05   -0.31961E-05  4016   0.121E-02    0.228E-02
DAV:   3    -0.338327921740E+03    0.29586E-05   -0.75452E-06  2712   0.114E-02    0.132E-02
DAV:   4    -0.338327922572E+03   -0.83126E-06   -0.35500E-06  2328   0.863E-03    0.165E-02
DAV:   5    -0.338327921033E+03    0.15389E-05   -0.21207E-06  2256   0.661E-03    0.701E-03
DAV:   6    -0.338327920854E+03    0.17905E-06   -0.78023E-07  2104   0.370E-03
  85 F= -.33832792E+03 E0= -.33821161E+03  d E =0.829275E-04
quench:  g(F)=  0.000E+00 g(S)=  0.000E+00 dE (1.order)= 0.000E+00
 bond charge predicted
       N       E                     dE             d eps       ncg     rms          rms(c)
DAV:   1    -0.338327834171E+03    0.86862E-04   -0.13367E-03  4000   0.505E-02    0.794E-03
DAV:   2    -0.338327837693E+03   -0.35218E-05   -0.28742E-05  3968   0.829E-03    0.122E-02
DAV:   3    -0.338327838591E+03   -0.89790E-06   -0.50231E-06  2456   0.950E-03    0.171E-02
DAV:   4    -0.338327838631E+03   -0.39960E-07   -0.37826E-06  2328   0.918E-03    0.171E-02
DAV:   5    -0.338327836713E+03    0.19177E-05   -0.20042E-06  2248   0.633E-03    0.484E-03
DAV:   6    -0.338327836687E+03    0.25684E-07   -0.44404E-07  2080   0.279E-03
  86 F= -.33832784E+03 E0= -.33821152E+03  d E =0.841664E-04
quench:  g(F)=  0.000E+00 g(S)=  0.000E+00 dE (1.order)= 0.000E+00
 bond charge predicted
       N       E                     dE             d eps       ncg     rms          rms(c)
DAV:   1    -0.338327748512E+03    0.88201E-04   -0.13849E-03  4000   0.514E-02    0.862E-03
DAV:   2    -0.338327753889E+03   -0.53776E-05   -0.33237E-05  4008   0.120E-02    0.190E-02
DAV:   3    -0.338327751507E+03    0.23827E-05   -0.65405E-06  2856   0.105E-02    0.102E-02
DAV:   4    -0.338327752044E+03   -0.53690E-06   -0.30213E-06  2344   0.695E-03    0.126E-02
DAV:   5    -0.338327751865E+03    0.17875E-06   -0.21111E-06  2240   0.680E-03
  87 F= -.33832775E+03 E0= -.33821146E+03  d E =0.848225E-04
quench:  g(F)=  0.000E+00 g(S)=  0.000E+00 dE (1.order)= 0.000E+00
 bond charge predicted
       N       E                     dE             d eps       ncg     rms          rms(c)
DAV:   1    -0.338327662334E+03    0.89709E-04   -0.14346E-03  4000   0.525E-02    0.915E-03
DAV:   2    -0.338327671705E+03   -0.93703E-05   -0.38252E-05  4016   0.145E-02    0.310E-02
DAV:   3    -0.338327667208E+03    0.44961E-05   -0.10794E-05  2808   0.144E-02    0.189E-02
DAV:   4    -0.338327665858E+03    0.13508E-05   -0.45222E-06  2360   0.944E-03    0.126E-02
DAV:   5    -0.338327665250E+03    0.60735E-06   -0.20504E-06  2184   0.573E-03
  88 F= -.33832767E+03 E0= -.33821135E+03  d E =0.866145E-04
quench:  g(F)=  0.000E+00 g(S)=  0.000E+00 dE (1.order)= 0.000E+00
 bond charge predicted
       N       E                     dE             d eps       ncg     rms          rms(c)
DAV:   1    -0.338327575252E+03    0.90606E-04   -0.14825E-03  4000   0.533E-02    0.926E-03
DAV:   2    -0.338327582855E+03   -0.76032E-05   -0.37653E-05  4016   0.136E-02    0.254E-02
DAV:   3    -0.338327578856E+03    0.39994E-05   -0.92443E-06  2960   0.124E-02    0.133E-02
DAV:   4    -0.338327580208E+03   -0.13518E-05   -0.41191E-06  2328   0.926E-03    0.185E-02
DAV:   5    -0.338327578247E+03    0.19607E-05   -0.26186E-06  2288   0.743E-03    0.789E-03
DAV:   6    -0.338327578025E+03    0.22202E-06   -0.97407E-07  2160   0.414E-03
  89 F= -.33832758E+03 E0= -.33821126E+03  d E =0.872254E-04
quench:  g(F)=  0.000E+00 g(S)=  0.000E+00 dE (1.order)= 0.000E+00
 bond charge predicted
       N       E                     dE             d eps       ncg     rms          rms(c)
DAV:   1    -0.338327487279E+03    0.90968E-04   -0.15300E-03  4000   0.540E-02    0.850E-03
DAV:   2    -0.338327491347E+03   -0.40685E-05   -0.32881E-05  3984   0.883E-03    0.133E-02
DAV:   3    -0.338327492365E+03   -0.10175E-05   -0.57398E-06  2480   0.102E-02    0.184E-02
DAV:   4    -0.338327492398E+03   -0.33229E-07   -0.43466E-06  2328   0.987E-03    0.183E-02
DAV:   5    -0.338327490170E+03    0.22281E-05   -0.22804E-06  2288   0.672E-03    0.491E-03
DAV:   6    -0.338327490177E+03   -0.73924E-08   -0.50303E-07  2064   0.294E-03
  90 F= -.33832749E+03 E0= -.33821118E+03  d E =0.878477E-04
quench:  g(F)=  0.000E+00 g(S)=  0.000E+00 dE (1.order)= 0.000E+00
 bond charge predicted
       N       E                     dE             d eps       ncg     rms          rms(c)
DAV:   1    -0.338327399028E+03    0.91142E-04   -0.15747E-03  4000   0.548E-02    0.919E-03
DAV:   2    -0.338327404948E+03   -0.59200E-05   -0.37667E-05  4008   0.127E-02    0.196E-02
DAV:   3    -0.338327402402E+03    0.25451E-05   -0.72281E-06  2984   0.111E-02    0.106E-02
DAV:   4    -0.338327402385E+03    0.17470E-07   -0.30720E-06  2416   0.671E-03    0.931E-03
DAV:   5    -0.338327402795E+03   -0.40977E-06   -0.19009E-06  2256   0.610E-03
  91 F= -.33832740E+03 E0= -.33821110E+03  d E =0.873824E-04
quench:  g(F)=  0.000E+00 g(S)=  0.000E+00 dE (1.order)= 0.000E+00
 bond charge predicted
       N       E                     dE             d eps       ncg     rms          rms(c)
DAV:   1    -0.338327310253E+03    0.92132E-04   -0.16240E-03  4000   0.558E-02    0.101E-02
DAV:   2    -0.338327336044E+03   -0.25791E-04   -0.51811E-05  4072   0.218E-02    0.573E-02
DAV:   3    -0.338327314357E+03    0.21687E-04   -0.21124E-05  3504   0.212E-02    0.164E-02
DAV:   4    -0.338327314098E+03    0.25905E-06   -0.52400E-06  2432   0.934E-03    0.125E-02
DAV:   5    -0.338327313504E+03    0.59369E-06   -0.23551E-06  2272   0.591E-03
  92 F= -.33832731E+03 E0= -.33821100E+03  d E =0.892906E-04
quench:  g(F)=  0.000E+00 g(S)=  0.000E+00 dE (1.order)= 0.000E+00
 bond charge predicted
       N       E                     dE             d eps       ncg     rms          rms(c)
DAV:   1    -0.338327220602E+03    0.93496E-04   -0.16666E-03  4000   0.565E-02    0.972E-03
DAV:   2    -0.338327228694E+03   -0.80927E-05   -0.41585E-05  4024   0.139E-02    0.261E-02
DAV:   3    -0.338327224476E+03    0.42185E-05   -0.96614E-06  2984   0.126E-02    0.130E-02
DAV:   4    -0.338327226658E+03   -0.21816E-05   -0.47532E-06  2336   0.994E-03    0.211E-02
DAV:   5    -0.338327223982E+03    0.26755E-05   -0.31029E-06  2296   0.819E-03    0.842E-03
DAV:   6    -0.338327223722E+03    0.26015E-06   -0.10604E-06  2192   0.436E-03
  93 F= -.33832722E+03 E0= -.33821091E+03  d E =0.897823E-04
quench:  g(F)=  0.000E+00 g(S)=  0.000E+00 dE (1.order)= 0.000E+00
 bond charge predicted
       N       E                     dE             d eps       ncg     rms          rms(c)
DAV:   1    -0.338327130828E+03    0.93154E-04   -0.17092E-03  4000   0.570E-02    0.912E-03
DAV:   2    -0.338327135767E+03   -0.49384E-05   -0.37279E-05  4000   0.101E-02    0.157E-02
DAV:   3    -0.338327136430E+03   -0.66267E-06   -0.69071E-06  2592   0.112E-02    0.193E-02
DAV:   4    -0.338327136225E+03    0.20432E-06   -0.47292E-06  2328   0.103E-02    0.184E-02
DAV:   5    -0.338327134132E+03    0.20935E-05   -0.24798E-06  2296   0.698E-03    0.612E-03
DAV:   6    -0.338327134025E+03    0.10627E-06   -0.61665E-07  2064   0.331E-03
  94 F= -.33832713E+03 E0= -.33821082E+03  d E =0.896965E-04
quench:  g(F)=  0.000E+00 g(S)=  0.000E+00 dE (1.order)= 0.000E+00
 bond charge predicted
       N       E                     dE             d eps       ncg     rms          rms(c)
DAV:   1    -0.338327041064E+03    0.93068E-04   -0.17504E-03  4000   0.577E-02    0.985E-03
DAV:   2    -0.338327048764E+03   -0.77009E-05   -0.43290E-05  4024   0.143E-02    0.242E-02
DAV:   3    -0.338327044634E+03    0.41309E-05   -0.93480E-06  3120   0.124E-02    0.103E-02
DAV:   4    -0.338327044849E+03   -0.21578E-06   -0.31988E-06  2424   0.700E-03    0.105E-02
DAV:   5    -0.338327045115E+03   -0.26611E-06   -0.20102E-06  2256   0.631E-03
  95 F= -.33832705E+03 E0= -.33821072E+03  d E =0.889100E-04
quench:  g(F)=  0.000E+00 g(S)=  0.000E+00 dE (1.order)= 0.000E+00
 bond charge predicted
       N       E                     dE             d eps       ncg     rms          rms(c)
DAV:   1    -0.338326950349E+03    0.94500E-04   -0.17948E-03  4000   0.586E-02    0.110E-02
DAV:   2    -0.338326993454E+03   -0.43105E-04   -0.68053E-05  4152   0.280E-02    0.742E-02
DAV:   3    -0.338326953876E+03    0.39578E-04   -0.31892E-05  4072   0.262E-02    0.162E-02
DAV:   4    -0.338326954453E+03   -0.57685E-06   -0.59173E-06  2720   0.961E-03    0.130E-02
DAV:   5    -0.338326953857E+03    0.59618E-06   -0.27052E-06  2296   0.631E-03
  96 F= -.33832695E+03 E0= -.33821064E+03  d E =0.912587E-04
quench:  g(F)=  0.000E+00 g(S)=  0.000E+00 dE (1.order)= 0.000E+00
 bond charge predicted
       N       E                     dE             d eps       ncg     rms          rms(c)
DAV:   1    -0.338326860259E+03    0.94194E-04   -0.18318E-03  4000   0.591E-02    0.104E-02
DAV:   2    -0.338326870841E+03   -0.10582E-04   -0.47545E-05  4032   0.160E-02    0.312E-02
DAV:   3    -0.338326865210E+03    0.56304E-05   -0.12011E-05  3144   0.149E-02    0.172E-02
DAV:   4    -0.338326865345E+03   -0.13463E-06   -0.48660E-06  2344   0.996E-03    0.171E-02
DAV:   5    -0.338326864071E+03    0.12738E-05   -0.33230E-06  2312   0.769E-03    0.938E-03
DAV:   6    -0.338326863660E+03    0.41095E-06   -0.13155E-06  2184   0.486E-03
  97 F= -.33832686E+03 E0= -.33821055E+03  d E =0.901965E-04
quench:  g(F)=  0.000E+00 g(S)=  0.000E+00 dE (1.order)= 0.000E+00
 bond charge predicted
       N       E                     dE             d eps       ncg     rms          rms(c)
DAV:   1    -0.338326769750E+03    0.94321E-04   -0.18699E-03  4000   0.596E-02    0.960E-03
DAV:   2    -0.338326774714E+03   -0.49641E-05   -0.40051E-05  4000   0.101E-02    0.149E-02
DAV:   3    -0.338326774773E+03   -0.59365E-07   -0.60419E-06  2784   0.105E-02    0.159E-02
DAV:   4    -0.338326777175E+03   -0.24022E-05   -0.54734E-06  2344   0.107E-02    0.235E-02
DAV:   5    -0.338326773386E+03    0.37892E-05   -0.36938E-06  2320   0.865E-03    0.699E-03
DAV:   6    -0.338326773235E+03    0.15114E-06   -0.62705E-07  2184   0.343E-03
  98 F= -.33832677E+03 E0= -.33821046E+03  d E =0.904253E-04
quench:  g(F)=  0.000E+00 g(S)=  0.000E+00 dE (1.order)= 0.000E+00
 bond charge predicted
       N       E                     dE             d eps       ncg     rms          rms(c)
DAV:   1    -0.338326679686E+03    0.93700E-04   -0.19041E-03  4000   0.600E-02    0.104E-02
DAV:   2    -0.338326688532E+03   -0.88458E-05   -0.47692E-05  4024   0.154E-02    0.264E-02
DAV:   3    -0.338326683742E+03    0.47896E-05   -0.10710E-05  3272   0.135E-02    0.121E-02
DAV:   4    -0.338326685751E+03   -0.20084E-05   -0.43120E-06  2456   0.942E-03    0.204E-02
DAV:   5    -0.338326683834E+03    0.19170E-05   -0.40162E-06  2312   0.903E-03    0.114E-02
DAV:   6    -0.338326683163E+03    0.67097E-06   -0.14747E-06  2192   0.529E-03
  99 F= -.33832668E+03 E0= -.33821037E+03  d E =0.900723E-04
[...]
DAV:   3    -0.338324164745E+03    0.25490E-06   -0.34749E-07  2056   0.254E-03    0.223E-03
DAV:   4    -0.338324164724E+03    0.20897E-07   -0.60235E-08  2048   0.108E-03    0.147E-03
DAV:   5    -0.338324164716E+03    0.79744E-08   -0.30596E-08  2040   0.762E-04
 683 F= -.33832416E+03 E0= -.33820792E+03  d E =-.636988E-06
quench:  g(F)=  0.000E+00 g(S)=  0.000E+00 dE (1.order)= 0.000E+00
 bond charge predicted
       N       E                     dE             d eps       ncg     rms          rms(c)
DAV:   1    -0.338324165339E+03   -0.61462E-06   -0.17715E-05  3368   0.383E-03    0.121E-03
DAV:   2    -0.338324165460E+03   -0.12113E-06   -0.35579E-07  2072   0.213E-03    0.362E-03
DAV:   3    -0.338324165353E+03    0.10657E-06   -0.14866E-07  2040   0.182E-03    0.125E-03
DAV:   4    -0.338324165366E+03   -0.12828E-07   -0.40545E-08  2040   0.880E-04    0.181E-03
DAV:   5    -0.338324165354E+03    0.12202E-07   -0.34716E-08  2040   0.853E-04
 684 F= -.33832417E+03 E0= -.33820792E+03  d E =-.637781E-06
quench:  g(F)=  0.000E+00 g(S)=  0.000E+00 dE (1.order)= 0.000E+00
 bond charge predicted
       N       E                     dE             d eps       ncg     rms          rms(c)
DAV:   1    -0.338324165970E+03   -0.60358E-06   -0.17801E-05  3376   0.385E-03    0.132E-03
DAV:   2    -0.338324166211E+03   -0.24154E-06   -0.51017E-07  2128   0.262E-03    0.572E-03
DAV:   3    -0.338324166007E+03    0.20434E-06   -0.29760E-07  2056   0.237E-03    0.218E-03
DAV:   4    -0.338324165988E+03    0.18859E-07   -0.58307E-08  2048   0.107E-03    0.152E-03
DAV:   5    -0.338324165979E+03    0.93496E-08   -0.31007E-08  2040   0.767E-04
 685 F= -.33832417E+03 E0= -.33820792E+03  d E =-.624779E-06
quench:  g(F)=  0.000E+00 g(S)=  0.000E+00 dE (1.order)= 0.000E+00
 bond charge predicted
       N       E                     dE             d eps       ncg     rms          rms(c)
DAV:   1    -0.338324166589E+03   -0.60072E-06   -0.17842E-05  3384   0.385E-03    0.123E-03
DAV:   2    -0.338324166722E+03   -0.13290E-06   -0.37300E-07  2072   0.220E-03    0.387E-03
DAV:   3    -0.338324166606E+03    0.11604E-06   -0.16839E-07  2040   0.189E-03    0.137E-03
DAV:   4    -0.338324166614E+03   -0.88257E-08   -0.43460E-08  2040   0.902E-04    0.176E-03
DAV:   5    -0.338324166605E+03    0.96552E-08   -0.36046E-08  2040   0.858E-04
 686 F= -.33832417E+03 E0= -.33820792E+03  d E =-.626103E-06
quench:  g(F)=  0.000E+00 g(S)=  0.000E+00 dE (1.order)= 0.000E+00
 bond charge predicted
       N       E                     dE             d eps       ncg     rms          rms(c)
DAV:   1    -0.338324167206E+03   -0.59143E-06   -0.17970E-05  3384   0.388E-03    0.127E-03
DAV:   2    -0.338324167389E+03   -0.18346E-06   -0.42745E-07  2128   0.237E-03    0.488E-03
DAV:   3    -0.338324167254E+03    0.13562E-06   -0.23709E-07  2056   0.218E-03    0.250E-03
DAV:   4    -0.338324167224E+03    0.29933E-07   -0.63628E-08  2048   0.114E-03    0.147E-03
DAV:   5    -0.338324167216E+03    0.74215E-08   -0.32677E-08  2048   0.767E-04
 687 F= -.33832417E+03 E0= -.33820792E+03  d E =-.611566E-06
quench:  g(F)=  0.000E+00 g(S)=  0.000E+00 dE (1.order)= 0.000E+00
 bond charge predicted
       N       E                     dE             d eps       ncg     rms          rms(c)
DAV:   1    -0.338324167814E+03   -0.59016E-06   -0.18087E-05  3384   0.389E-03    0.127E-03
DAV:   2    -0.338324167955E+03   -0.14089E-06   -0.39177E-07  2104   0.227E-03    0.402E-03
DAV:   3    -0.338324167836E+03    0.11887E-06   -0.18216E-07  2056   0.197E-03    0.167E-03
DAV:   4    -0.338324167836E+03   -0.21828E-10   -0.46902E-08  2056   0.951E-04    0.165E-03
DAV:   5    -0.338324167828E+03    0.76689E-08   -0.35481E-08  2048   0.832E-04
 688 F= -.33832417E+03 E0= -.33820792E+03  d E =-.611959E-06
quench:  g(F)=  0.000E+00 g(S)=  0.000E+00 dE (1.order)= 0.000E+00
 bond charge predicted
       N       E                     dE             d eps       ncg     rms          rms(c)
DAV:   1    -0.338324168421E+03   -0.58545E-06   -0.18261E-05  3384   0.391E-03    0.130E-03
DAV:   2    -0.338324168606E+03   -0.18507E-06   -0.44435E-07  2128   0.241E-03    0.489E-03
DAV:   3    -0.338324168457E+03    0.14946E-06   -0.24087E-07  2056   0.216E-03    0.211E-03
DAV:   4    -0.338324168445E+03    0.12406E-07   -0.58758E-08  2048   0.109E-03    0.171E-03
DAV:   5    -0.338324168432E+03    0.12304E-07   -0.35507E-08  2040   0.821E-04
 689 F= -.33832417E+03 E0= -.33820792E+03  d E =-.604028E-06
quench:  g(F)=  0.000E+00 g(S)=  0.000E+00 dE (1.order)= 0.000E+00
 bond charge predicted
       N       E                     dE             d eps       ncg     rms          rms(c)
DAV:   1    -0.338324169020E+03   -0.57546E-06   -0.18404E-05  3400   0.393E-03    0.129E-03
DAV:   2    -0.338324169164E+03   -0.14417E-06   -0.40315E-07  2112   0.232E-03    0.408E-03
DAV:   3    -0.338324169042E+03    0.12172E-06   -0.18745E-07  2040   0.201E-03    0.167E-03
DAV:   4    -0.338324169043E+03   -0.75670E-09   -0.47956E-08  2040   0.961E-04    0.168E-03
DAV:   5    -0.338324169034E+03    0.91750E-08   -0.36374E-08  2040   0.842E-04
 690 F= -.33832417E+03 E0= -.33820793E+03  d E =-.601794E-06
quench:  g(F)=  0.000E+00 g(S)=  0.000E+00 dE (1.order)= 0.000E+00
 bond charge predicted
       N       E                     dE             d eps       ncg     rms          rms(c)
DAV:   1    -0.338324169617E+03   -0.57337E-06   -0.18593E-05  3392   0.395E-03    0.133E-03
DAV:   2    -0.338324169825E+03   -0.20822E-06   -0.47701E-07  2144   0.252E-03    0.521E-03
DAV:   3    -0.338324169654E+03    0.17052E-06   -0.26543E-07  2056   0.226E-03    0.217E-03
DAV:   4    -0.338324169640E+03    0.14508E-07   -0.61541E-08  2048   0.111E-03    0.171E-03
DAV:   5    -0.338324169627E+03    0.12486E-07   -0.36256E-08  2040   0.829E-04
 691 F= -.33832417E+03 E0= -.33820793E+03  d E =-.593260E-06
quench:  g(F)=  0.000E+00 g(S)=  0.000E+00 dE (1.order)= 0.000E+00
 bond charge predicted
       N       E                     dE             d eps       ncg     rms          rms(c)
DAV:   1    -0.338324170209E+03   -0.56914E-06   -0.18734E-05  3400   0.397E-03    0.130E-03
DAV:   2    -0.338324170353E+03   -0.14398E-06   -0.40871E-07  2112   0.234E-03    0.407E-03
DAV:   3    -0.338324170228E+03    0.12512E-06   -0.18656E-07  2040   0.201E-03    0.158E-03
DAV:   4    -0.338324170233E+03   -0.55006E-08   -0.47722E-08  2040   0.957E-04    0.175E-03
DAV:   5    -0.338324170222E+03    0.10972E-07   -0.37574E-08  2040   0.862E-04
 692 F= -.33832417E+03 E0= -.33820793E+03  d E =-.595013E-06
quench:  g(F)=  0.000E+00 g(S)=  0.000E+00 dE (1.order)= 0.000E+00
 bond charge predicted
       N       E                     dE             d eps       ncg     rms          rms(c)
DAV:   1    -0.338324170795E+03   -0.56217E-06   -0.18918E-05  3416   0.399E-03    0.137E-03
DAV:   2    -0.338324171031E+03   -0.23561E-06   -0.51411E-07  2152   0.264E-03    0.557E-03
DAV:   3    -0.338324170835E+03    0.19607E-06   -0.29417E-07  2056   0.237E-03    0.225E-03
DAV:   4    -0.338324170818E+03    0.17237E-07   -0.64294E-08  2048   0.113E-03    0.169E-03
DAV:   5    -0.338324170806E+03    0.12042E-07   -0.36347E-08  2040   0.828E-04
 693 F= -.33832417E+03 E0= -.33820793E+03  d E =-.583408E-06
quench:  g(F)=  0.000E+00 g(S)=  0.000E+00 dE (1.order)= 0.000E+00
 bond charge predicted
       N       E                     dE             d eps       ncg     rms          rms(c)
DAV:   1    -0.338324171377E+03   -0.55951E-06   -0.19032E-05  3416   0.400E-03    0.130E-03
DAV:   2    -0.338324171518E+03   -0.14032E-06   -0.40904E-07  2112   0.233E-03    0.402E-03
DAV:   3    -0.338324171394E+03    0.12379E-06   -0.18284E-07  2040   0.200E-03    0.149E-03
DAV:   4    -0.338324171403E+03   -0.93423E-08   -0.47334E-08  2040   0.953E-04    0.183E-03
DAV:   5    -0.338324171390E+03    0.13097E-07   -0.38552E-08  2040   0.878E-04
 694 F= -.33832417E+03 E0= -.33820793E+03  d E =-.584325E-06
quench:  g(F)=  0.000E+00 g(S)=  0.000E+00 dE (1.order)= 0.000E+00
 bond charge predicted
       N       E                     dE             d eps       ncg     rms          rms(c)
DAV:   1    -0.338324171953E+03   -0.54971E-06   -0.19183E-05  3416   0.403E-03    0.139E-03
DAV:   2    -0.338324172216E+03   -0.26291E-06   -0.55246E-07  2160   0.275E-03    0.593E-03
DAV:   3    -0.338324171994E+03    0.22148E-06   -0.32319E-07  2056   0.247E-03    0.230E-03
DAV:   4    -0.338324171974E+03    0.20387E-07   -0.66061E-08  2048   0.114E-03    0.167E-03
DAV:   5    -0.338324171964E+03    0.10165E-07   -0.36260E-08  2040   0.827E-04
 695 F= -.33832417E+03 E0= -.33820793E+03  d E =-.573687E-06
quench:  g(F)=  0.000E+00 g(S)=  0.000E+00 dE (1.order)= 0.000E+00
 bond charge predicted
       N       E                     dE             d eps       ncg     rms          rms(c)
DAV:   1    -0.338324172522E+03   -0.54837E-06   -0.19248E-05  3416   0.403E-03    0.130E-03
DAV:   2    -0.338324172660E+03   -0.13770E-06   -0.40444E-07  2112   0.230E-03    0.393E-03
DAV:   3    -0.338324172539E+03    0.12064E-06   -0.17616E-07  2040   0.197E-03    0.142E-03
DAV:   4    -0.338324172551E+03   -0.11358E-07   -0.46745E-08  2040   0.949E-04    0.188E-03
DAV:   5    -0.338324172537E+03    0.13795E-07   -0.38982E-08  2040   0.888E-04
 696 F= -.33832417E+03 E0= -.33820793E+03  d E =-.573149E-06
quench:  g(F)=  0.000E+00 g(S)=  0.000E+00 dE (1.order)= 0.000E+00
 bond charge predicted
       N       E                     dE             d eps       ncg     rms          rms(c)
DAV:   1    -0.338324173086E+03   -0.53530E-06   -0.19345E-05  3416   0.405E-03    0.142E-03
DAV:   2    -0.338324173374E+03   -0.28779E-06   -0.58808E-07  2160   0.284E-03    0.625E-03
DAV:   3    -0.338324173126E+03    0.24738E-06   -0.34990E-07  2056   0.256E-03    0.229E-03
DAV:   4    -0.338324173107E+03    0.19631E-07   -0.66362E-08  2048   0.114E-03    0.165E-03
DAV:   5    -0.338324173096E+03    0.10303E-07   -0.35937E-08  2040   0.825E-04
 697 F= -.33832417E+03 E0= -.33820793E+03  d E =-.559579E-06
quench:  g(F)=  0.000E+00 g(S)=  0.000E+00 dE (1.order)= 0.000E+00
 bond charge predicted
       N       E                     dE             d eps       ncg     rms          rms(c)
DAV:   1    -0.338324173639E+03   -0.53228E-06   -0.19337E-05  3424   0.404E-03    0.129E-03
DAV:   2    -0.338324173770E+03   -0.13105E-06   -0.39379E-07  2104   0.225E-03    0.380E-03
DAV:   3    -0.338324173655E+03    0.11463E-06   -0.16645E-07  2040   0.193E-03    0.134E-03
DAV:   4    -0.338324173670E+03   -0.14254E-07   -0.45948E-08  2040   0.940E-04    0.193E-03
DAV:   5    -0.338324173654E+03    0.16189E-07   -0.38977E-08  2040   0.896E-04
 698 F= -.33832417E+03 E0= -.33820793E+03  d E =-.557069E-06
quench:  g(F)=  0.000E+00 g(S)=  0.000E+00 dE (1.order)= 0.000E+00
 bond charge predicted
       N       E                     dE             d eps       ncg     rms          rms(c)
DAV:   1    -0.338324174187E+03   -0.51691E-06   -0.19361E-05  3424   0.405E-03    0.144E-03
DAV:   2    -0.338324174500E+03   -0.31364E-06   -0.62363E-07  2160   0.294E-03    0.659E-03
DAV:   3    -0.338324174226E+03    0.27463E-06   -0.37734E-07  2056   0.265E-03    0.228E-03
DAV:   4    -0.338324174205E+03    0.20256E-07   -0.65855E-08  2048   0.113E-03    0.161E-03
DAV:   5    -0.338324174196E+03    0.89640E-08   -0.35080E-08  2040   0.816E-04
 699 F= -.33832417E+03 E0= -.33820793E+03  d E =-.542881E-06
quench:  g(F)=  0.000E+00 g(S)=  0.000E+00 dE (1.order)= 0.000E+00
 bond charge predicted
       N       E                     dE             d eps       ncg     rms          rms(c)
DAV:   1    -0.338324174719E+03   -0.51330E-06   -0.19270E-05  3432   0.404E-03    0.127E-03
DAV:   2    -0.338324174844E+03   -0.12536E-06   -0.38065E-07  2072   0.220E-03    0.366E-03
DAV:   3    -0.338324174733E+03    0.11070E-06   -0.15594E-07  2040   0.187E-03    0.125E-03
DAV:   4    -0.338324174751E+03   -0.17200E-07   -0.44945E-08  2040   0.929E-04    0.198E-03
DAV:   5    -0.338324174734E+03    0.16109E-07   -0.38773E-08  2040   0.903E-04
 700 F= -.33832417E+03 E0= -.33820793E+03  d E =-.538021E-06
quench:  g(F)=  0.000E+00 g(S)=  0.000E+00 dE (1.order)= 0.000E+00
 bond charge predicted
       N       E                     dE             d eps       ncg     rms          rms(c)
DAV:   1    -0.338324175246E+03   -0.49523E-06   -0.19218E-05  3416   0.404E-03    0.145E-03
DAV:   2    -0.338324175585E+03   -0.33973E-06   -0.65580E-07  2160   0.301E-03    0.688E-03
DAV:   3    -0.338324175284E+03    0.30200E-06   -0.40261E-07  2056   0.272E-03    0.227E-03
DAV:   4    -0.338324175264E+03    0.19842E-07   -0.64778E-08  2048   0.111E-03    0.154E-03
DAV:   5    -0.338324175254E+03    0.92987E-08   -0.33427E-08  2040   0.797E-04
 701 F= -.33832418E+03 E0= -.33820793E+03  d E =-.519933E-06
quench:  g(F)=  0.000E+00 g(S)=  0.000E+00 dE (1.order)= 0.000E+00
 bond charge predicted
       N       E                     dE             d eps       ncg     rms          rms(c)
DAV:   1    -0.338324175755E+03   -0.49171E-06   -0.19055E-05  3424   0.402E-03    0.124E-03
DAV:   2    -0.338324175871E+03   -0.11602E-06   -0.36540E-07  2072   0.213E-03    0.352E-03
DAV:   3    -0.338324175770E+03    0.10129E-06   -0.14563E-07  2040   0.182E-03    0.122E-03
DAV:   4    -0.338324175787E+03   -0.16982E-07   -0.43568E-08  2040   0.918E-04    0.196E-03
DAV:   5    -0.338324175771E+03    0.16436E-07   -0.37246E-08  2040   0.885E-04
 702 F= -.33832418E+03 E0= -.33820793E+03  d E =-.516287E-06
quench:  g(F)=  0.000E+00 g(S)=  0.000E+00 dE (1.order)= 0.000E+00
 bond charge predicted
       N       E                     dE             d eps       ncg     rms          rms(c)
DAV:   1    -0.338324176261E+03   -0.47343E-06   -0.18952E-05  3416   0.402E-03    0.144E-03
DAV:   2    -0.338324176606E+03   -0.34539E-06   -0.66151E-07  2160   0.302E-03    0.696E-03
DAV:   3    -0.338324176290E+03    0.31615E-06   -0.40372E-07  2056   0.270E-03    0.196E-03
DAV:   4    -0.338324176281E+03    0.86220E-08   -0.58232E-08  2048   0.104E-03    0.160E-03
DAV:   5    -0.338324176270E+03    0.10958E-07   -0.32977E-08  2040   0.803E-04
 703 F= -.33832418E+03 E0= -.33820793E+03  d E =-.499531E-06
quench:  g(F)=  0.000E+00 g(S)=  0.000E+00 dE (1.order)= 0.000E+00
 bond charge predicted
       N       E                     dE             d eps       ncg     rms          rms(c)
DAV:   1    -0.338324176749E+03   -0.46830E-06   -0.18769E-05  3424   0.400E-03    0.121E-03
DAV:   2    -0.338324176862E+03   -0.11266E-06   -0.35396E-07  2072   0.206E-03    0.346E-03
DAV:   3    -0.338324176764E+03    0.97934E-07   -0.13947E-07  2040   0.176E-03    0.121E-03
DAV:   4    -0.338324176781E+03   -0.16596E-07   -0.41803E-08  2040   0.899E-04    0.192E-03
DAV:   5    -0.338324176766E+03    0.14807E-07   -0.37039E-08  2040   0.886E-04
 704 F= -.33832418E+03 E0= -.33820794E+03  d E =-.495776E-06
quench:  g(F)=  0.000E+00 g(S)=  0.000E+00 dE (1.order)= 0.000E+00
 bond charge predicted
       N       E                     dE             d eps       ncg     rms          rms(c)
DAV:   1    -0.338324177231E+03   -0.45064E-06   -0.18664E-05  3408   0.400E-03    0.136E-03
DAV:   2    -0.338324177500E+03   -0.26822E-06   -0.55421E-07  2152   0.273E-03    0.602E-03
DAV:   3    -0.338324177270E+03    0.22927E-06   -0.32490E-07  2056   0.247E-03    0.227E-03
DAV:   4    -0.338324177250E+03    0.20205E-07   -0.61143E-08  2048   0.109E-03    0.149E-03
DAV:   5    -0.338324177242E+03    0.77562E-08   -0.31735E-08  2040   0.773E-04
 705 F= -.33832418E+03 E0= -.33820793E+03  d E =-.476444E-06
quench:  g(F)=  0.000E+00 g(S)=  0.000E+00 dE (1.order)= 0.000E+00
 bond charge predicted
       N       E                     dE             d eps       ncg     rms          rms(c)
DAV:   1    -0.338324177700E+03   -0.44960E-06   -0.18491E-05  3424   0.397E-03    0.124E-03
DAV:   2    -0.338324177830E+03   -0.12980E-06   -0.37771E-07  2072   0.218E-03    0.384E-03
DAV:   3    -0.338324177718E+03    0.11112E-06   -0.16827E-07  2040   0.188E-03    0.140E-03
DAV:   4    -0.338324177728E+03   -0.93059E-08   -0.45041E-08  2040   0.921E-04    0.180E-03
DAV:   5    -0.338324177717E+03    0.10368E-07   -0.37577E-08  2040   0.877E-04
 706 F= -.33832418E+03 E0= -.33820794E+03  d E =-.474967E-06
quench:  g(F)=  0.000E+00 g(S)=  0.000E+00 dE (1.order)= 0.000E+00
 bond charge predicted
       N       E                     dE             d eps       ncg     rms          rms(c)
DAV:   1    -0.338324178162E+03   -0.43453E-06   -0.18404E-05  3400   0.398E-03    0.129E-03
DAV:   2    -0.338324178348E+03   -0.18573E-06   -0.43843E-07  2128   0.240E-03    0.487E-03
DAV:   3    -0.338324178214E+03    0.13366E-06   -0.24016E-07  2056   0.220E-03    0.256E-03
DAV:   4    -0.338324178181E+03    0.33331E-07   -0.65570E-08  2048   0.116E-03    0.146E-03
DAV:   5    -0.338324178175E+03    0.56825E-08   -0.33770E-08  2048   0.775E-04
 707 F= -.33832418E+03 E0= -.33820794E+03  d E =-.457956E-06
quench:  g(F)=  0.000E+00 g(S)=  0.000E+00 dE (1.order)= 0.000E+00
 bond charge predicted
       N       E                     dE             d eps       ncg     rms          rms(c)
DAV:   1    -0.338324178617E+03   -0.43633E-06   -0.18330E-05  3424   0.397E-03    0.128E-03
DAV:   2    -0.338324178758E+03   -0.14107E-06   -0.39712E-07  2104   0.227E-03    0.403E-03
DAV:   3    -0.338324178642E+03    0.11628E-06   -0.18517E-07  2056   0.197E-03    0.173E-03
DAV:   4    -0.338324178641E+03    0.11423E-08   -0.48727E-08  2056   0.973E-04    0.167E-03
DAV:   5    -0.338324178633E+03    0.84328E-08   -0.36543E-08  2048   0.842E-04
 708 F= -.33832418E+03 E0= -.33820794E+03  d E =-.457228E-06
quench:  g(F)=  0.000E+00 g(S)=  0.000E+00 dE (1.order)= 0.000E+00
 bond charge predicted
       N       E                     dE             d eps       ncg     rms          rms(c)
DAV:   1    -0.338324179066E+03   -0.42549E-06   -0.18327E-05  3400   0.398E-03    0.131E-03
DAV:   2    -0.338324179252E+03   -0.18503E-06   -0.44888E-07  2128   0.243E-03    0.484E-03
DAV:   3    -0.338324179101E+03    0.15061E-06   -0.23969E-07  2056   0.216E-03    0.207E-03
DAV:   4    -0.338324179090E+03    0.10623E-07   -0.58588E-08  2056   0.108E-03    0.173E-03
DAV:   5    -0.338324179078E+03    0.12093E-07   -0.36476E-08  2048   0.833E-04
 709 F= -.33832418E+03 E0= -.33820794E+03  d E =-.445638E-06
quench:  g(F)=  0.000E+00 g(S)=  0.000E+00 dE (1.order)= 0.000E+00
 bond charge predicted
       N       E                     dE             d eps       ncg     rms          rms(c)
DAV:   1    -0.338324179510E+03   -0.41961E-06   -0.18327E-05  3424   0.397E-03    0.129E-03
DAV:   2    -0.338324179655E+03   -0.14545E-06   -0.40759E-07  2128   0.233E-03    0.411E-03
DAV:   3    -0.338324179535E+03    0.12053E-06   -0.19173E-07  2056   0.202E-03    0.177E-03
DAV:   4    -0.338324179533E+03    0.22410E-08   -0.49724E-08  2056   0.982E-04    0.166E-03
DAV:   5    -0.338324179523E+03    0.93714E-08   -0.36600E-08  2048   0.838E-04
 710 F= -.33832418E+03 E0= -.33820794E+03  d E =-.445019E-06
quench:  g(F)=  0.000E+00 g(S)=  0.000E+00 dE (1.order)= 0.000E+00
 bond charge predicted
       N       E                     dE             d eps       ncg     rms          rms(c)
DAV:   1    -0.338324179950E+03   -0.41784E-06   -0.18394E-05  3408   0.399E-03    0.133E-03
DAV:   2    -0.338324180151E+03   -0.20105E-06   -0.46866E-07  2128   0.249E-03    0.505E-03
DAV:   3    -0.338324179986E+03    0.16575E-06   -0.25545E-07  2056   0.222E-03    0.210E-03
DAV:   4    -0.338324179975E+03    0.10426E-07   -0.60147E-08  2056   0.110E-03    0.174E-03
DAV:   5    -0.338324179963E+03    0.12675E-07   -0.36880E-08  2048   0.837E-04
 711 F= -.33832418E+03 E0= -.33820794E+03  d E =-.439402E-06
quench:  g(F)=  0.000E+00 g(S)=  0.000E+00 dE (1.order)= 0.000E+00
 reached required accuracy - stopping structural energy minimisation
