  67  67   0   0
  0.3503968E+02  0.1114491E-08  0.1114491E-08  0.2182484E-08  0.0000000E+00
  1.000000000000000E-004
  CAR 
 Si-Diamond                              
      9.11461605    -24.41934017  301      0.83367384      1.00000000
    -24.419  0.0000E+00  0.0000E+00
    -24.308  0.0000E+00  0.0000E+00
    -24.196  0.0000E+00  0.0000E+00
    -24.084 -0.3403E-31 -0.3804E-32
    -23.972 -0.2552E-27 -0.2853E-28
    -23.860 -0.1019E-23 -0.1140E-24
    -23.749 -0.2166E-20 -0.2423E-21
    -23.637 -0.2447E-17 -0.2738E-18
    -23.525 -0.1420E-14 -0.1589E-15
    -23.413 -0.4473E-12 -0.5016E-13
    -23.302 -0.7415E-10 -0.8338E-11
    -23.190 -0.6425E-08 -0.7266E-09
    -23.078 -0.2877E-06 -0.3289E-07
    -22.966 -0.6512E-05 -0.7608E-06
    -22.854 -0.7095E-04 -0.8691E-05
    -22.743 -0.3208E-03 -0.4455E-04
    -22.631 -0.1412E-03 -0.6033E-04
    -22.519  0.2870E-02  0.2605E-03
    -22.407  0.7515E-02  0.1101E-02
    -22.296  0.6760E-02  0.1856E-02
    -22.184  0.1914E-02  0.2070E-02
    -22.072 -0.3237E-03  0.2034E-02
    -21.960 -0.2549E-03  0.2006E-02
    -21.848 -0.4556E-04  0.2000E-02
    -21.737 -0.3554E-05  0.2000E-02
    -21.625 -0.1354E-06  0.2000E-02
    -21.513 -0.2624E-08  0.2000E-02
    -21.401 -0.2635E-10  0.2000E-02
    -21.290 -0.1386E-12  0.2000E-02
    -21.178 -0.3845E-15  0.2000E-02
    -21.066  0.0000E+00  0.2000E-02
    -20.954  0.0000E+00  0.2000E-02
    -20.842  0.0000E+00  0.2000E-02
    -20.731  0.0000E+00  0.2000E-02
    -20.619  0.0000E+00  0.2000E-02
    -20.507  0.0000E+00  0.2000E-02
    -20.395  0.0000E+00  0.2000E-02
    -20.283  0.0000E+00  0.2000E-02
    -20.172  0.0000E+00  0.2000E-02
    -20.060  0.0000E+00  0.2000E-02
    -19.948 -0.4145E-32  0.2000E-02
    -19.836 -0.3584E-28  0.2000E-02
    -19.725 -0.1651E-24  0.2000E-02
    -19.613 -0.4047E-21  0.2000E-02
    -19.501 -0.5275E-18  0.2000E-02
    -19.389 -0.3541E-15  0.2000E-02
    -19.277 -0.1288E-12  0.2000E-02
    -19.166 -0.2470E-10  0.2000E-02
    -19.054 -0.2480E-08  0.2000E-02
    -18.942 -0.1291E-06  0.2000E-02
    -18.830 -0.3420E-05  0.2000E-02
    -18.719 -0.4427E-04  0.1995E-02
    -18.607 -0.2508E-03  0.1967E-02
    -18.495 -0.3311E-03  0.1930E-02
    -18.383  0.1860E-02  0.2138E-02
    -18.271  0.6706E-02  0.2887E-02
    -18.160  0.7553E-02  0.3731E-02
    -18.048  0.2933E-02  0.4059E-02
    -17.936 -0.1257E-03  0.4045E-02
    -17.824 -0.3247E-03  0.4009E-02
    -17.713 -0.7282E-04  0.4001E-02
    -17.601 -0.6753E-05  0.4000E-02
    -17.489 -0.3011E-06  0.4000E-02
    -17.377 -0.6784E-08  0.4000E-02
    -17.265 -0.7897E-10  0.4000E-02
    -17.154 -0.4804E-12  0.4000E-02
    -17.042 -0.1535E-14  0.4000E-02
    -16.930 -0.3973E-17  0.4000E-02
    -16.818  0.0000E+00  0.4000E-02
    -16.707  0.0000E+00  0.4000E-02
    -16.595  0.0000E+00  0.4000E-02
    -16.483  0.0000E+00  0.4000E-02
    -16.371  0.0000E+00  0.4000E-02
    -16.259  0.0000E+00  0.4000E-02
    -16.148  0.0000E+00  0.4000E-02
    -16.036  0.0000E+00  0.4000E-02
    -15.924  0.0000E+00  0.4000E-02
    -15.812  0.0000E+00  0.4000E-02
    -15.701  0.0000E+00  0.4000E-02
    -15.589  0.0000E+00  0.4000E-02
    -15.477  0.0000E+00  0.4000E-02
    -15.365  0.0000E+00  0.4000E-02
    -15.253  0.0000E+00  0.4000E-02
    -15.142  0.0000E+00  0.4000E-02
    -15.030  0.0000E+00  0.4000E-02
    -14.918  0.0000E+00  0.4000E-02
    -14.806  0.0000E+00  0.4000E-02
    -14.694  0.0000E+00  0.4000E-02
    -14.583  0.0000E+00  0.4000E-02
    -14.471  0.0000E+00  0.4000E-02
    -14.359  0.0000E+00  0.4000E-02
    -14.247  0.0000E+00  0.4000E-02
    -14.136  0.0000E+00  0.4000E-02
    -14.024  0.0000E+00  0.4000E-02
    -13.912  0.0000E+00  0.4000E-02
    -13.800  0.0000E+00  0.4000E-02
    -13.688  0.0000E+00  0.4000E-02
    -13.577  0.0000E+00  0.4000E-02
    -13.465  0.0000E+00  0.4000E-02
    -13.353  0.0000E+00  0.4000E-02
    -13.241  0.0000E+00  0.4000E-02
    -13.130  0.0000E+00  0.4000E-02
    -13.018  0.0000E+00  0.4000E-02
    -12.906  0.0000E+00  0.4000E-02
    -12.794  0.0000E+00  0.4000E-02
    -12.682  0.0000E+00  0.4000E-02
    -12.571  0.0000E+00  0.4000E-02
    -12.459  0.0000E+00  0.4000E-02
    -12.347  0.0000E+00  0.4000E-02
    -12.235  0.0000E+00  0.4000E-02
    -12.124  0.0000E+00  0.4000E-02
    -12.012  0.0000E+00  0.4000E-02
    -11.900  0.0000E+00  0.4000E-02
    -11.788  0.0000E+00  0.4000E-02
    -11.676  0.0000E+00  0.4000E-02
    -11.565  0.0000E+00  0.4000E-02
    -11.453  0.0000E+00  0.4000E-02
    -11.341  0.0000E+00  0.4000E-02
    -11.229  0.0000E+00  0.4000E-02
    -11.118  0.0000E+00  0.4000E-02
    -11.006 -0.2495E-29  0.4000E-02
    -10.894 -0.1389E-25  0.4000E-02
    -10.782 -0.4119E-22  0.4000E-02
    -10.670 -0.6495E-19  0.4000E-02
    -10.559 -0.5241E-16  0.4000E-02
    -10.447 -0.2330E-13  0.4000E-02
    -10.335 -0.5423E-11  0.4000E-02
    -10.223 -0.6624E-09  0.4000E-02
    -10.112 -0.4210E-07  0.4000E-02
    -10.000 -0.1371E-05  0.4000E-02
     -9.888 -0.2216E-04  0.3997E-02
     -9.776 -0.1645E-03  0.3979E-02
     -9.664 -0.4084E-03  0.3933E-02
     -9.553  0.8015E-03  0.4023E-02
     -9.441  0.5286E-02  0.4614E-02
     -9.329  0.8083E-02  0.5517E-02
     -9.217  0.4467E-02  0.6017E-02
     -9.106  0.3921E-03  0.6060E-02
     -8.994 -0.3968E-03  0.6016E-02
     -8.882 -0.1271E-03  0.6002E-02
     -8.770 -0.1499E-04  0.6000E-02
     -8.658 -0.8271E-06  0.6000E-02
     -8.547 -0.2282E-07  0.6000E-02
     -8.435 -0.3236E-09  0.6000E-02
     -8.323 -0.2392E-11  0.6000E-02
     -8.211 -0.9284E-14  0.6000E-02
     -8.099 -0.1986E-16  0.6000E-02
     -7.988  0.0000E+00  0.6000E-02
     -7.876  0.0000E+00  0.6000E-02
     -7.764 -0.4885E-32  0.6000E-02
     -7.652 -0.4453E-28  0.6000E-02
     -7.541 -0.2055E-24  0.6000E-02
     -7.429 -0.5062E-21  0.6000E-02
     -7.317 -0.6650E-18  0.6000E-02
     -7.205 -0.4505E-15  0.6000E-02
     -7.093 -0.1668E-12  0.6000E-02
     -6.982 -0.3266E-10  0.6000E-02
     -6.870 -0.3369E-08  0.6000E-02
     -6.758 -0.1815E-06  0.6000E-02
     -6.646 -0.5018E-05  0.5999E-02
     -6.535 -0.6874E-04  0.5992E-02
     -6.423 -0.4236E-03  0.5944E-02
     -6.311 -0.7293E-03  0.5863E-02
     -6.199  0.2766E-02  0.6172E-02
     -6.087  0.1212E-01  0.7527E-02
     -5.976  0.1557E-01  0.9268E-02
     -5.864  0.7224E-02  0.1008E-01
     -5.752  0.4430E-04  0.1008E-01
     -5.640 -0.1093E-02  0.9958E-02
     -5.529  0.4192E-03  0.1000E-01
     -5.417  0.5102E-02  0.1058E-01
     -5.305  0.1079E-01  0.1178E-01
     -5.193  0.1273E-01  0.1320E-01
     -5.081  0.1549E-01  0.1494E-01
     -4.970  0.1946E-01  0.1711E-01
     -4.858  0.1795E-01  0.1912E-01
     -4.746  0.1363E-01  0.2064E-01
     -4.634  0.9231E-02  0.2167E-01
     -4.523  0.4227E-02  0.2215E-01
     -4.411  0.1110E-02  0.2227E-01
     -4.299  0.5129E-02  0.2284E-01
     -4.187  0.1362E-01  0.2437E-01
     -4.075  0.1453E-01  0.2599E-01
     -3.964  0.1199E-01  0.2733E-01
     -3.852  0.2369E-01  0.2998E-01
     -3.740  0.5250E-01  0.3585E-01
     -3.628  0.8327E-01  0.4515E-01
     -3.517  0.9791E-01  0.5610E-01
     -3.405  0.1075E+00  0.6811E-01
     -3.293  0.1340E+00  0.8309E-01
     -3.181  0.1523E+00  0.1001E+00
     -3.069  0.1370E+00  0.1154E+00
     -2.958  0.1120E+00  0.1279E+00
     -2.846  0.1068E+00  0.1399E+00
     -2.734  0.1149E+00  0.1527E+00
     -2.622  0.1185E+00  0.1660E+00
     -2.510  0.1138E+00  0.1787E+00
     -2.399  0.1039E+00  0.1903E+00
     -2.287  0.9881E-01  0.2013E+00
     -2.175  0.9928E-01  0.2124E+00
     -2.063  0.1022E+00  0.2239E+00
     -1.952  0.1134E+00  0.2365E+00
     -1.840  0.1263E+00  0.2507E+00
     -1.728  0.1383E+00  0.2661E+00
     -1.616  0.1498E+00  0.2829E+00
     -1.504  0.1651E+00  0.3013E+00
     -1.393  0.1887E+00  0.3224E+00
     -1.281  0.1974E+00  0.3445E+00
     -1.169  0.1750E+00  0.3640E+00
     -1.057  0.1436E+00  0.3801E+00
     -0.946  0.1335E+00  0.3950E+00
     -0.834  0.1268E+00  0.4092E+00
     -0.722  0.1204E+00  0.4226E+00
     -0.610  0.1350E+00  0.4377E+00
     -0.498  0.1490E+00  0.4544E+00
     -0.387  0.1430E+00  0.4704E+00
     -0.275  0.1218E+00  0.4840E+00
     -0.163  0.1148E+00  0.4968E+00
     -0.051  0.1347E+00  0.5119E+00
      0.060  0.1556E+00  0.5293E+00
      0.172  0.1626E+00  0.5475E+00
      0.284  0.1505E+00  0.5643E+00
      0.396  0.1262E+00  0.5784E+00
      0.508  0.1261E+00  0.5925E+00
      0.619  0.1718E+00  0.6117E+00
      0.731  0.2139E+00  0.6356E+00
      0.843  0.1968E+00  0.6576E+00
      0.955  0.1391E+00  0.6732E+00
      1.066  0.8046E-01  0.6821E+00
      1.178  0.3966E-01  0.6866E+00
      1.290  0.1756E-01  0.6885E+00
      1.402  0.6907E-02  0.6893E+00
      1.514  0.8930E-02  0.6903E+00
      1.625  0.2175E-01  0.6927E+00
      1.737  0.2889E-01  0.6960E+00
      1.849  0.2330E-01  0.6986E+00
      1.961  0.1700E-01  0.7005E+00
      2.072  0.1974E-01  0.7027E+00
      2.184  0.2205E-01  0.7051E+00
      2.296  0.1953E-01  0.7073E+00
      2.408  0.1908E-01  0.7095E+00
      2.520  0.1757E-01  0.7114E+00
      2.631  0.1351E-01  0.7129E+00
      2.743  0.1118E-01  0.7142E+00
      2.855  0.1142E-01  0.7155E+00
      2.967  0.1508E-01  0.7171E+00
      3.079  0.1960E-01  0.7193E+00
      3.190  0.2469E-01  0.7221E+00
      3.302  0.2872E-01  0.7253E+00
      3.414  0.2783E-01  0.7284E+00
      3.526  0.2582E-01  0.7313E+00
      3.637  0.2450E-01  0.7340E+00
      3.749  0.2541E-01  0.7369E+00
      3.861  0.3032E-01  0.7403E+00
      3.973  0.2984E-01  0.7436E+00
      4.085  0.2130E-01  0.7460E+00
      4.196  0.1247E-01  0.7474E+00
      4.308  0.7210E-02  0.7482E+00
      4.420  0.8825E-02  0.7492E+00
      4.532  0.1790E-01  0.7512E+00
      4.643  0.2652E-01  0.7541E+00
      4.755  0.2461E-01  0.7569E+00
      4.867  0.1506E-01  0.7586E+00
      4.979  0.1257E-01  0.7600E+00
      5.091  0.2174E-01  0.7624E+00
      5.202  0.2869E-01  0.7656E+00
      5.314  0.2407E-01  0.7683E+00
      5.426  0.1358E-01  0.7698E+00
      5.538  0.1010E-01  0.7710E+00
      5.649  0.2265E-01  0.7735E+00
      5.761  0.3550E-01  0.7775E+00
      5.873  0.3243E-01  0.7811E+00
      5.985  0.2405E-01  0.7838E+00
      6.097  0.1872E-01  0.7859E+00
      6.208  0.1488E-01  0.7875E+00
      6.320  0.1317E-01  0.7890E+00
      6.432  0.1304E-01  0.7905E+00
      6.544  0.1519E-01  0.7922E+00
      6.655  0.2117E-01  0.7945E+00
      6.767  0.2351E-01  0.7971E+00
      6.879  0.1649E-01  0.7990E+00
      6.991  0.6523E-02  0.7997E+00
      7.103  0.1625E-02  0.7999E+00
      7.214  0.7927E-03  0.8000E+00
      7.326  0.2488E-03  0.8000E+00
      7.438 -0.8349E-04  0.8000E+00
      7.550 -0.5890E-04  0.8000E+00
      7.661 -0.1121E-04  0.8000E+00
      7.773 -0.9471E-06  0.8000E+00
      7.885 -0.3945E-07  0.8000E+00
      7.997 -0.8426E-09  0.8000E+00
      8.109 -0.9393E-11  0.8000E+00
      8.220 -0.5516E-13  0.8000E+00
      8.332 -0.1713E-15  0.8000E+00
      8.444 -0.4414E-18  0.8000E+00
      8.556  0.0000E+00  0.8000E+00
      8.667  0.0000E+00  0.8000E+00
      8.779  0.0000E+00  0.8000E+00
      8.891  0.0000E+00  0.8000E+00
      9.003  0.0000E+00  0.8000E+00
      9.115  0.0000E+00  0.8000E+00
