   67   67  841    1
  0.3503968E+02  0.1114491E-08  0.1114491E-08  0.2182484E-08  0.2000000E-17
  1.000000000000000E-004
  CAR 
 Si-Diamond                              
    656      5    400
 
  0.0000000E+00  0.0000000E+00  0.0000000E+00  0.1111111E+00
    1      -22.403335   1.000000
    2      -18.010757   1.000000
    3       -9.377247   1.000000
    4       -6.058749   1.000000
    5       -6.028444   1.000000
    6       -5.490120   1.000000
    7       -5.294940   1.000000
    8       -4.882161   1.000000
    9       -4.764158   1.000000
   10       -4.745245   1.000000
   11       -4.402448   1.000000
   12       -4.015581   1.000000
   13       -4.006516   1.000000
   14       -4.003191   1.000000
   15       -3.990025   1.000000
   16       -3.974489   1.000000
   17       -3.970973   1.000000
   18       -3.935016   1.000000
   19       -3.908862   1.000000
   20       -3.907723   1.000000
   21       -3.879957   1.000000
   22       -3.787596   1.000000
   23       -3.776358   1.000000
   24       -3.772681   1.000000
   25       -3.768832   1.000000
   26       -3.623997   1.000000
   27       -3.620465   1.000000
   28       -3.617989   1.000000
   29       -3.473084   1.000000
   30       -3.454322   1.000000
   31       -3.443175   1.000000
   32       -3.425159   1.000000
   33       -3.418764   1.000000
   34       -3.412575   1.000000
   35       -3.395569   1.000000
   36       -3.389831   1.000000
   37       -3.349325   1.000000
   38       -3.276368   1.000000
   39       -3.252125   1.000000
   40       -3.228445   1.000000
   41       -3.210477   1.000000
   42       -3.206680   1.000000
   43       -3.202866   1.000000
   44       -3.200944   1.000000
   45       -3.197716   1.000000
   46       -3.195700   1.000000
   47       -3.193133   1.000000
   48       -3.187232   1.000000
   49       -3.175991   1.000000
   50       -3.167586   1.000000
   51       -3.161228   1.000000
   52       -3.142376   1.000000
   53       -3.130760   1.000000
   54       -3.128085   1.000000
   55       -3.122305   1.000000
   56       -3.085621   1.000000
   57       -3.073554   1.000000
   58       -3.046059   1.000000
   59       -2.942473   1.000000
   60       -2.937174   1.000000
   61       -2.928162   1.000000
   62       -2.908208   1.000000
   63       -2.900661   1.000000
   64       -2.896093   1.000000
   65       -2.854840   1.000000
   66       -2.840362   1.000000
   67       -2.831838   1.000000
   68       -2.820123   1.000000
   69       -2.810145   1.000000
   70       -2.795773   1.000000
   71       -2.783491   1.000000
   72       -2.779678   1.000000
   73       -2.749474   1.000000
   74       -2.746626   1.000000
   75       -2.739265   1.000000
   76       -2.736379   1.000000
   77       -2.725087   1.000000
   78       -2.713772   1.000000
   79       -2.677276   1.000000
   80       -2.652582   1.000000
   81       -2.649050   1.000000
   82       -2.628059   1.000000
   83       -2.617508   1.000000
   84       -2.612084   1.000000
   85       -2.546347   1.000000
   86       -2.493449   1.000000
   87       -2.470083   1.000000
   88       -2.462465   1.000000
   89       -2.457979   1.000000
   90       -2.421811   1.000000
   91       -2.415268   1.000000
   92       -2.373777   1.000000
   93       -2.364364   1.000000
   94       -2.360088   1.000000
   95       -2.355998   1.000000
   96       -2.350341   1.000000
   97       -2.348538   1.000000
   98       -2.320337   1.000000
   99       -2.311812   1.000000
  100       -2.303132   1.000000
  101       -2.292978   1.000000
  102       -2.280151   1.000000
  103       -2.275894   1.000000
  104       -2.268653   1.000000
  105       -2.263843   1.000000
  106       -2.260563   1.000000
  107       -2.251262   1.000000
  108       -2.245633   1.000000
  109       -2.176556   1.000000
  110       -2.092679   1.000000
  111       -2.074343   1.000000
  112       -2.068206   1.000000
  113       -2.051158   1.000000
  114       -2.049795   1.000000
  115       -2.043452   1.000000
  116       -2.035705   1.000000
  117       -2.005999   1.000000
  118       -1.974359   1.000000
  119       -1.946088   1.000000
  120       -1.933112   1.000000
  121       -1.925831   1.000000
  122       -1.921792   1.000000
  123       -1.920581   1.000000
  124       -1.916567   1.000000
  125       -1.907530   1.000000
  126       -1.876935   1.000000
  127       -1.874656   1.000000
  128       -1.815164   1.000000
  129       -1.790469   1.000000
  130       -1.783007   1.000000
  131       -1.759046   1.000000
  132       -1.746009   1.000000
  133       -1.734442   1.000000
  134       -1.718002   1.000000
  135       -1.714333   1.000000
  136       -1.711744   1.000000
  137       -1.707114   1.000000
  138       -1.704735   1.000000
  139       -1.700862   1.000000
  140       -1.697332   1.000000
  141       -1.696804   1.000000
  142       -1.661565   1.000000
  143       -1.645539   1.000000
  144       -1.624902   1.000000
  145       -1.623794   1.000000
  146       -1.542338   1.000000
  147       -1.529703   1.000000
  148       -1.520977   1.000000
  149       -1.518617   1.000000
  150       -1.508678   1.000000
  151       -1.500819   1.000000
  152       -1.491041   1.000000
  153       -1.487601   1.000000
  154       -1.472689   1.000000
  155       -1.445185   1.000000
  156       -1.429630   1.000000
  157       -1.412600   1.000000
  158       -1.399005   1.000000
  159       -1.362413   1.000000
  160       -1.355983   1.000000
  161       -1.353665   1.000000
  162       -1.317408   1.000000
  163       -1.312798   1.000000
  164       -1.288521   1.000000
  165       -1.283115   1.000000
  166       -1.256229   1.000000
  167       -1.246117   1.000000
  168       -1.242426   1.000000
  169       -1.231023   1.000000
  170       -1.229650   1.000000
  171       -1.217831   1.000000
  172       -1.211792   1.000000
  173       -1.203390   1.000000
  174       -1.199947   1.000000
  175       -1.198133   1.000000
  176       -1.196356   1.000000
  177       -1.195174   1.000000
  178       -1.183232   1.000000
  179       -1.178721   1.000000
  180       -1.177522   1.000000
  181       -1.175727   1.000000
  182       -1.175475   1.000000
  183       -1.172082   1.000000
  184       -1.166356   1.000000
  185       -1.166211   1.000000
  186       -1.162092   1.000000
  187       -1.153668   1.000000
  188       -1.148205   1.000000
  189       -1.141754   1.000000
  190       -1.128050   1.000000
  191       -1.125497   1.000000
  192       -1.117057   1.000000
  193       -1.112448   1.000000
  194       -1.059103   1.000000
  195       -1.050874   1.000000
  196       -1.040421   1.000000
  197       -1.012717   1.000000
  198       -1.007144   1.000000
  199       -0.977402   1.000000
  200       -0.935602   1.000000
  201       -0.926663   1.000000
  202       -0.908420   1.000000
  203       -0.903986   1.000000
  204       -0.887936   1.000000
  205       -0.870313   1.000000
  206       -0.839660   1.000000
  207       -0.832606   1.000000
  208       -0.800066   1.000000
  209       -0.776945   1.000000
  210       -0.762703   1.000000
  211       -0.742796   1.000000
  212       -0.737554   1.000000
  213       -0.736964   1.000000
  214       -0.730040   1.000000
  215       -0.728028   1.000000
  216       -0.724506   1.000000
  217       -0.714088   1.000000
  218       -0.711189   1.000000
  219       -0.702732   1.000000
  220       -0.701733   1.000000
  221       -0.694063   1.000000
  222       -0.663762   1.000000
  223       -0.659569   1.000000
  224       -0.655868   1.000000
  225       -0.588111   1.000000
  226       -0.583032   1.000000
  227       -0.578509   1.000000
  228       -0.562783   1.000000
  229       -0.553032   1.000000
  230       -0.548311   1.000000
  231       -0.509708   1.000000
  232       -0.506622   1.000000
  233       -0.496614   1.000000
  234       -0.487276   1.000000
  235       -0.479253   1.000000
  236       -0.453158   1.000000
  237       -0.426464   1.000000
  238       -0.413811   1.000000
  239       -0.403707   1.000000
  240       -0.391503   1.000000
  241       -0.368136   1.000000
  242       -0.361456   1.000000
  243       -0.348689   1.000000
  244       -0.334394   1.000000
  245       -0.322952   1.000000
  246       -0.299721   1.000000
  247       -0.297700   1.000000
  248       -0.265864   1.000000
  249       -0.256984   1.000000
  250       -0.250936   1.000000
  251       -0.239119   1.000000
  252       -0.221140   1.000000
  253       -0.209817   1.000000
  254       -0.192877   1.000000
  255       -0.176688   1.000000
  256       -0.168549   1.000000
  257       -0.164021   1.000000
  258       -0.160489   1.000000
  259       -0.148702   1.000000
  260       -0.147886   1.000000
  261       -0.139241   1.000000
  262       -0.136670   1.000000
  263       -0.131914   1.000000
  264       -0.120915   1.000000
  265       -0.103888   1.000000
  266       -0.060598   1.000000
  267       -0.050891   1.000000
  268       -0.005122   1.000000
  269       -0.000138   1.000000
  270        0.004386   1.000000
  271        0.018215   1.000000
  272        0.029700   1.000000
  273        0.039415   1.000000
  274        0.041407   1.000000
  275        0.049677   1.000000
  276        0.063179   1.000000
  277        0.069033   1.000001
  278        0.094453   1.000001
  279        0.100118   1.000002
  280        0.109010   1.000002
  281        0.133016   1.000005
  282        0.137915   1.000006
  283        0.140733   1.000007
  284        0.145779   1.000008
  285        0.153217   1.000010
  286        0.227672   1.000094
  287        0.251424   1.000180
  288        0.276644   1.000347
  289        0.323599   1.001065
  290        0.328455   1.001188
  291        0.356792   1.002180
  292        0.384631   1.003779
  293        0.399169   1.004942
  294        0.421656   1.007287
  295        0.436403   1.009232
  296        0.466863   1.014343
  297        0.471665   1.015280
  298        0.479126   1.016798
  299        0.501674   1.021765
  300        0.576367   1.035324
  301        0.597231   1.034519
  302        0.600160   1.034087
  303        0.621521   1.027882
  304        0.625936   1.025833
  305        0.635513   1.020340
  306        0.688394   0.957993
  307        0.696543   0.942741
  308        0.706542   0.921764
  309        0.742982   0.824123
  310        0.746439   0.813194
  311        0.762032   0.760629
  312        0.782584   0.684161
  313        0.791278   0.649812
  314        0.796109   0.630315
  315        0.800491   0.612418
  316        0.803043   0.601911
  317        0.813312   0.559131
  318        0.816519   0.545651
  319        0.820119   0.530469
  320        0.822125   0.521994
  321        0.825876   0.506128
  322        0.829852   0.489307
  323        0.831474   0.482444
  324        0.880279   0.284405
  325        0.880595   0.283217
  326        0.881219   0.280875
  327        0.934174   0.111676
  328        0.940928   0.094854
  329        0.966673   0.041270
  330        0.975692   0.026364
  331        0.977059   0.024274
  332        0.987133   0.010198
  333        0.995563   0.000152
  334        0.999245  -0.003763
  335        1.006810  -0.010949
  336        1.035409  -0.028830
  337        1.041818  -0.031105
  338        1.083095  -0.035039
  339        1.084922  -0.034893
  340        1.115271  -0.030234
  341        1.144153  -0.023800
  342        1.156070  -0.021058
  343        1.156158  -0.021038
  344        1.156548  -0.020949
  345        1.478128  -0.000021
  346        1.680983  -0.000000
  347        1.694963  -0.000000
  348        1.744108  -0.000000
  349        1.835758  -0.000000
  350        1.971726  -0.000000
  351        2.056286  -0.000000
  352        2.597951  -0.000000
  353        2.716406  -0.000000
  354        2.734003  -0.000000
  355        2.937892  -0.000000
  356        3.168285  -0.000000
  357        3.218456  -0.000000
  358        3.282367  -0.000000
  359        3.287457  -0.000000
  360        3.300898  -0.000000
  361        3.335920  -0.000000
  362        3.397201  -0.000000
  363        3.398234  -0.000000
  364        3.804179  -0.000000
  365        3.813908  -0.000000
  366        3.819923  -0.000000
  367        3.830598  -0.000000
  368        3.852882  -0.000000
  369        3.863810  -0.000000
  370        3.882381  -0.000000
  371        3.899924  -0.000000
  372        3.936766  -0.000000
  373        3.952588  -0.000000
  374        4.062446  -0.000000
  375        4.115414  -0.000000
  376        4.145136  -0.000000
  377        4.293948  -0.000000
  378        4.371839  -0.000000
  379        4.547142  -0.000000
  380        4.552411  -0.000000
  381        4.571955  -0.000000
  382        4.655624  -0.000000
  383        4.667018  -0.000000
  384        4.839924  -0.000000
  385        5.130129  -0.000000
  386        5.196781  -0.000000
  387        5.247456  -0.000000
  388        5.269565  -0.000000
  389        5.328454  -0.000000
  390        5.536943  -0.000000
  391        5.675569  -0.000000
  392        5.683075  -0.000000
  393        5.715299  -0.000000
  394        5.746490  -0.000000
  395        5.920494  -0.000000
  396        5.996922  -0.000000
  397        6.190106  -0.000000
  398        6.371403   0.000000
  399        7.065252   0.000000
  400        7.110161   0.000000
 
  0.3333333E+00 -0.3736539E-16  0.0000000E+00  0.2222222E+00
    1      -22.403409   1.000000
    2      -18.010796   1.000000
    3       -9.377257   1.000000
    4       -6.058890   1.000000
    5       -6.028540   1.000000
    6       -5.340893   1.000000
    7       -5.238776   1.000000
    8       -4.885752   1.000000
    9       -4.782375   1.000000
   10       -4.726424   1.000000
   11       -4.626798   1.000000
   12       -4.219878   1.000000
   13       -4.178964   1.000000
   14       -4.174881   1.000000
   15       -3.822086   1.000000
   16       -3.782361   1.000000
   17       -3.765113   1.000000
   18       -3.752179   1.000000
   19       -3.731289   1.000000
   20       -3.724173   1.000000
   21       -3.699327   1.000000
   22       -3.650092   1.000000
   23       -3.645567   1.000000
   24       -3.639096   1.000000
   25       -3.632096   1.000000
   26       -3.609940   1.000000
   27       -3.581295   1.000000
   28       -3.531057   1.000000
   29       -3.526197   1.000000
   30       -3.521450   1.000000
   31       -3.446443   1.000000
   32       -3.434370   1.000000
   33       -3.392128   1.000000
   34       -3.370804   1.000000
   35       -3.369080   1.000000
   36       -3.348030   1.000000
   37       -3.339668   1.000000
   38       -3.331100   1.000000
   39       -3.315797   1.000000
   40       -3.313280   1.000000
   41       -3.295342   1.000000
   42       -3.285299   1.000000
   43       -3.278522   1.000000
   44       -3.274568   1.000000
   45       -3.241189   1.000000
   46       -3.224787   1.000000
   47       -3.221980   1.000000
   48       -3.216575   1.000000
   49       -3.208721   1.000000
   50       -3.203578   1.000000
   51       -3.202133   1.000000
   52       -3.178021   1.000000
   53       -3.161929   1.000000
   54       -3.142065   1.000000
   55       -3.133886   1.000000
   56       -3.119298   1.000000
   57       -3.099918   1.000000
   58       -3.095399   1.000000
   59       -3.086145   1.000000
   60       -3.048764   1.000000
   61       -3.043114   1.000000
   62       -3.027502   1.000000
   63       -3.020553   1.000000
   64       -3.011609   1.000000
   65       -2.965046   1.000000
   66       -2.927442   1.000000
   67       -2.898114   1.000000
   68       -2.891383   1.000000
   69       -2.870192   1.000000
   70       -2.856743   1.000000
   71       -2.852107   1.000000
   72       -2.827108   1.000000
   73       -2.820002   1.000000
   74       -2.803657   1.000000
   75       -2.763101   1.000000
   76       -2.744026   1.000000
   77       -2.726530   1.000000
   78       -2.719231   1.000000
   79       -2.699839   1.000000
   80       -2.677882   1.000000
   81       -2.671728   1.000000
   82       -2.661747   1.000000
   83       -2.636540   1.000000
   84       -2.599252   1.000000
   85       -2.585492   1.000000
   86       -2.561723   1.000000
   87       -2.538088   1.000000
   88       -2.531584   1.000000
   89       -2.523167   1.000000
   90       -2.515184   1.000000
   91       -2.500841   1.000000
   92       -2.475788   1.000000
   93       -2.470211   1.000000
   94       -2.465726   1.000000
   95       -2.430054   1.000000
   96       -2.428371   1.000000
   97       -2.378117   1.000000
   98       -2.332896   1.000000
   99       -2.323195   1.000000
  100       -2.297221   1.000000
  101       -2.286101   1.000000
  102       -2.275297   1.000000
  103       -2.266548   1.000000
  104       -2.261336   1.000000
  105       -2.235762   1.000000
  106       -2.218425   1.000000
  107       -2.195579   1.000000
  108       -2.170882   1.000000
  109       -2.151858   1.000000
  110       -2.125124   1.000000
  111       -2.079882   1.000000
  112       -2.067705   1.000000
  113       -2.050298   1.000000
  114       -2.037711   1.000000
  115       -2.001033   1.000000
  116       -1.981282   1.000000
  117       -1.969378   1.000000
  118       -1.938640   1.000000
  119       -1.928001   1.000000
  120       -1.917730   1.000000
  121       -1.907263   1.000000
  122       -1.897214   1.000000
  123       -1.884886   1.000000
  124       -1.859908   1.000000
  125       -1.849035   1.000000
  126       -1.834805   1.000000
  127       -1.828627   1.000000
  128       -1.823369   1.000000
  129       -1.806582   1.000000
  130       -1.795771   1.000000
  131       -1.780455   1.000000
  132       -1.755073   1.000000
  133       -1.742411   1.000000
  134       -1.728942   1.000000
  135       -1.704639   1.000000
  136       -1.700593   1.000000
  137       -1.684390   1.000000
  138       -1.680944   1.000000
  139       -1.657073   1.000000
  140       -1.649309   1.000000
  141       -1.632935   1.000000
  142       -1.622041   1.000000
  143       -1.613997   1.000000
  144       -1.590226   1.000000
  145       -1.578664   1.000000
  146       -1.569170   1.000000
  147       -1.556995   1.000000
  148       -1.552768   1.000000
  149       -1.521987   1.000000
  150       -1.511969   1.000000
  151       -1.499924   1.000000
  152       -1.481395   1.000000
  153       -1.478397   1.000000
  154       -1.473454   1.000000
  155       -1.456424   1.000000
  156       -1.452509   1.000000
  157       -1.438679   1.000000
  158       -1.431346   1.000000
  159       -1.427023   1.000000
  160       -1.423304   1.000000
  161       -1.416262   1.000000
  162       -1.408523   1.000000
  163       -1.398048   1.000000
  164       -1.388790   1.000000
  165       -1.378578   1.000000
  166       -1.373779   1.000000
  167       -1.352597   1.000000
  168       -1.338724   1.000000
  169       -1.329482   1.000000
  170       -1.323563   1.000000
  171       -1.314168   1.000000
  172       -1.292731   1.000000
  173       -1.289560   1.000000
  174       -1.283780   1.000000
  175       -1.269267   1.000000
  176       -1.261855   1.000000
  177       -1.232993   1.000000
  178       -1.222911   1.000000
  179       -1.206212   1.000000
  180       -1.199805   1.000000
  181       -1.195601   1.000000
  182       -1.185855   1.000000
  183       -1.181398   1.000000
  184       -1.158873   1.000000
  185       -1.156325   1.000000
  186       -1.113910   1.000000
  187       -1.095525   1.000000
  188       -1.072565   1.000000
  189       -1.047268   1.000000
  190       -1.033113   1.000000
  191       -1.007537   1.000000
  192       -0.994587   1.000000
  193       -0.985855   1.000000
  194       -0.981341   1.000000
  195       -0.965387   1.000000
  196       -0.956415   1.000000
  197       -0.945940   1.000000
  198       -0.934295   1.000000
  199       -0.921960   1.000000
  200       -0.920492   1.000000
  201       -0.916750   1.000000
  202       -0.910594   1.000000
  203       -0.886883   1.000000
  204       -0.880125   1.000000
  205       -0.878179   1.000000
  206       -0.867189   1.000000
  207       -0.846140   1.000000
  208       -0.789954   1.000000
  209       -0.782511   1.000000
  210       -0.746429   1.000000
  211       -0.745018   1.000000
  212       -0.711596   1.000000
  213       -0.703395   1.000000
  214       -0.685487   1.000000
  215       -0.676033   1.000000
  216       -0.669177   1.000000
  217       -0.652052   1.000000
  218       -0.649278   1.000000
  219       -0.641761   1.000000
  220       -0.636458   1.000000
  221       -0.620765   1.000000
  222       -0.607224   1.000000
  223       -0.600729   1.000000
  224       -0.592310   1.000000
  225       -0.585080   1.000000
  226       -0.574689   1.000000
  227       -0.528229   1.000000
  228       -0.489714   1.000000
  229       -0.483773   1.000000
  230       -0.478852   1.000000
  231       -0.452759   1.000000
  232       -0.442873   1.000000
  233       -0.440601   1.000000
  234       -0.430423   1.000000
  235       -0.423910   1.000000
  236       -0.410775   1.000000
  237       -0.397235   1.000000
  238       -0.379972   1.000000
  239       -0.363097   1.000000
  240       -0.336538   1.000000
  241       -0.333664   1.000000
  242       -0.315852   1.000000
  243       -0.244227   1.000000
  244       -0.239803   1.000000
  245       -0.215832   1.000000
  246       -0.194658   1.000000
  247       -0.179782   1.000000
  248       -0.162363   1.000000
  249       -0.120534   1.000000
  250       -0.114035   1.000000
  251       -0.108294   1.000000
  252       -0.096829   1.000000
  253       -0.092468   1.000000
  254       -0.074353   1.000000
  255       -0.052611   1.000000
  256       -0.048125   1.000000
  257       -0.041557   1.000000
  258       -0.034638   1.000000
  259       -0.017753   1.000000
  260       -0.004501   1.000000
  261        0.017402   1.000000
  262        0.033454   1.000000
  263        0.045587   1.000000
  264        0.047283   1.000000
  265        0.074189   1.000001
  266        0.079688   1.000001
  267        0.083492   1.000001
  268        0.097455   1.000002
  269        0.120014   1.000003
  270        0.123880   1.000004
  271        0.130388   1.000005
  272        0.135603   1.000006
  273        0.154374   1.000011
  274        0.156838   1.000011
  275        0.175906   1.000021
  276        0.189782   1.000031
  277        0.196207   1.000038
  278        0.199152   1.000042
  279        0.216300   1.000068
  280        0.228197   1.000096
  281        0.236346   1.000120
  282        0.259409   1.000223
  283        0.271072   1.000301
  284        0.280948   1.000386
  285        0.306145   1.000712
  286        0.347595   1.001799
  287        0.365624   1.002609
  288        0.369051   1.002794
  289        0.374974   1.003139
  290        0.407184   1.005697
  291        0.407775   1.005756
  292        0.429478   1.008276
  293        0.452989   1.011832
  294        0.454966   1.012172
  295        0.479550   1.016887
  296        0.514668   1.024765
  297        0.519714   1.025928
  298        0.549635   1.032186
  299        0.566558   1.034594
  300        0.572010   1.035072
  301        0.577851   1.035381
  302        0.583841   1.035450
  303        0.585566   1.035418
  304        0.589485   1.035254
  305        0.596403   1.034625
  306        0.610271   1.031863
  307        0.622911   1.027269
  308        0.642942   1.015011
  309        0.647013   1.011666
  310        0.657262   1.001823
  311        0.660087   0.998736
  312        0.680988   0.970449
  313        0.682272   0.968384
  314        0.692668   0.950198
  315        0.694622   0.946484
  316        0.698318   0.939200
  317        0.700949   0.933806
  318        0.706684   0.921447
  319        0.721049   0.886842
  320        0.724766   0.877042
  321        0.744014   0.820891
  322        0.744694   0.818745
  323        0.760728   0.765220
  324        0.774098   0.716622
  325        0.784384   0.677136
  326        0.792405   0.645290
  327        0.803416   0.600370
  328        0.819141   0.534597
  329        0.829608   0.490338
  330        0.840689   0.443589
  331        0.847115   0.416710
  332        0.848223   0.412103
  333        0.857325   0.374628
  334        0.866536   0.337567
  335        0.872344   0.314754
  336        0.899874   0.214264
  337        0.942830   0.090325
  338        0.959710   0.054128
  339        0.985658   0.012115
  340        1.009592  -0.013311
  341        1.014161  -0.016879
  342        1.017190  -0.019038
  343        1.078551  -0.035312
  344        1.166794  -0.018663
  345        1.267617  -0.003954
  346        1.574176  -0.000001
  347        1.610455  -0.000000
  348        1.721968  -0.000000
  349        1.774747  -0.000000
  350        1.831574  -0.000000
  351        2.061626  -0.000000
  352        2.120905  -0.000000
  353        2.227880  -0.000000
  354        2.328524  -0.000000
  355        2.384460  -0.000000
  356        2.513378  -0.000000
  357        2.734820  -0.000000
  358        2.925852  -0.000000
  359        2.947573  -0.000000
  360        3.063282  -0.000000
  361        3.146580  -0.000000
  362        3.163099  -0.000000
  363        3.262188  -0.000000
  364        3.336750  -0.000000
  365        3.397965  -0.000000
  366        3.504414  -0.000000
  367        3.545298  -0.000000
  368        3.567644  -0.000000
  369        3.697553  -0.000000
  370        3.799935  -0.000000
  371        3.839602  -0.000000
  372        3.909493  -0.000000
  373        3.976662  -0.000000
  374        4.122520  -0.000000
  375        4.391668  -0.000000
  376        4.553732  -0.000000
  377        4.673733  -0.000000
  378        4.684696  -0.000000
  379        4.790026  -0.000000
  380        4.972933  -0.000000
  381        5.076016  -0.000000
  382        5.096279  -0.000000
  383        5.099125  -0.000000
  384        5.222493  -0.000000
  385        5.249175  -0.000000
  386        5.550616  -0.000000
  387        5.624280  -0.000000
  388        5.683538  -0.000000
  389        5.722945  -0.000000
  390        5.799862  -0.000000
  391        5.823113  -0.000000
  392        5.928154  -0.000000
  393        6.082677  -0.000000
  394        6.233522  -0.000000
  395        6.357903   0.000000
  396        6.587458   0.000000
  397        6.679773   0.000000
  398        6.698308   0.000000
  399        6.808219   0.000000
  400        6.833241   0.000000
 
  0.0000000E+00  0.3333333E+00  0.0000000E+00  0.2222222E+00
    1      -22.403413   1.000000
    2      -18.010794   1.000000
    3       -9.377254   1.000000
    4       -6.058720   1.000000
    5       -6.028750   1.000000
    6       -5.339252   1.000000
    7       -5.242350   1.000000
    8       -4.897051   1.000000
    9       -4.755298   1.000000
   10       -4.733657   1.000000
   11       -4.625558   1.000000
   12       -4.219437   1.000000
   13       -4.182523   1.000000
   14       -4.179688   1.000000
   15       -3.827684   1.000000
   16       -3.777146   1.000000
   17       -3.766372   1.000000
   18       -3.748611   1.000000
   19       -3.731855   1.000000
   20       -3.725871   1.000000
   21       -3.696336   1.000000
   22       -3.653746   1.000000
   23       -3.647339   1.000000
   24       -3.639034   1.000000
   25       -3.629032   1.000000
   26       -3.614177   1.000000
   27       -3.577274   1.000000
   28       -3.531740   1.000000
   29       -3.527042   1.000000
   30       -3.521911   1.000000
   31       -3.440011   1.000000
   32       -3.436739   1.000000
   33       -3.389475   1.000000
   34       -3.379013   1.000000
   35       -3.374833   1.000000
   36       -3.354883   1.000000
   37       -3.343968   1.000000
   38       -3.332512   1.000000
   39       -3.313241   1.000000
   40       -3.310059   1.000000
   41       -3.291727   1.000000
   42       -3.286262   1.000000
   43       -3.279175   1.000000
   44       -3.272731   1.000000
   45       -3.240292   1.000000
   46       -3.224904   1.000000
   47       -3.221966   1.000000
   48       -3.217002   1.000000
   49       -3.214136   1.000000
   50       -3.202708   1.000000
   51       -3.198108   1.000000
   52       -3.194326   1.000000
   53       -3.154048   1.000000
   54       -3.140625   1.000000
   55       -3.135205   1.000000
   56       -3.121801   1.000000
   57       -3.101363   1.000000
   58       -3.092319   1.000000
   59       -3.074284   1.000000
   60       -3.044133   1.000000
   61       -3.040754   1.000000
   62       -3.028496   1.000000
   63       -3.012838   1.000000
   64       -3.009063   1.000000
   65       -2.971318   1.000000
   66       -2.926407   1.000000
   67       -2.905208   1.000000
   68       -2.898652   1.000000
   69       -2.867953   1.000000
   70       -2.860423   1.000000
   71       -2.848579   1.000000
   72       -2.838220   1.000000
   73       -2.820090   1.000000
   74       -2.807580   1.000000
   75       -2.758009   1.000000
   76       -2.741062   1.000000
   77       -2.723204   1.000000
   78       -2.711990   1.000000
   79       -2.703684   1.000000
   80       -2.683670   1.000000
   81       -2.670712   1.000000
   82       -2.656717   1.000000
   83       -2.629989   1.000000
   84       -2.601661   1.000000
   85       -2.578194   1.000000
   86       -2.556909   1.000000
   87       -2.541199   1.000000
   88       -2.527760   1.000000
   89       -2.516496   1.000000
   90       -2.506582   1.000000
   91       -2.497179   1.000000
   92       -2.479616   1.000000
   93       -2.470817   1.000000
   94       -2.462186   1.000000
   95       -2.434915   1.000000
   96       -2.430575   1.000000
   97       -2.377146   1.000000