 running on  128 total cores
 distrk:  each k-point on  128 cores,    1 groups
 distr:  one band on   16 cores,    8 groups
 using from now: INCAR     
 vasp.5.4.4.18Apr17-6-g9f103f2a35 (build Aug 16 2021 22:57:11) complex          
  
 POSCAR found type information on POSCAR  Pd N  O 
 POSCAR found :  3 types and      67 ions
 scaLAPACK will be used

 ----------------------------------------------------------------------------- 
|                                                                             |
|  ADVICE TO THIS USER RUNNING 'VASP/VAMP'   (HEAR YOUR MASTER'S VOICE ...):  |
|                                                                             |
|      You have a (more or less) 'large supercell' and for larger cells       |
|      it might be more efficient to use real space projection opertators     |
|      So try LREAL= Auto  in the INCAR   file.                               |
|      Mind:          For very  accurate calculation you might also keep the  |
|      reciprocal projection scheme          (i.e. LREAL=.FALSE.)             |
|                                                                             |
 ----------------------------------------------------------------------------- 

 LDA part: xc-table for Pade appr. of Perdew
 POSCAR found type information on POSCAR  Pd N  O 
 POSCAR found :  3 types and      67 ions
 POSCAR, INCAR and KPOINTS ok, starting setup
 FFT: planning ...
 WAVECAR not read
 entering main loop
       N       E                     dE             d eps       ncg     rms          rms(c)
DAV:   1     0.381649474993E+04    0.38165E+04   -0.26680E+05  4072   0.117E+03
DAV:   2    -0.124951516257E+03   -0.39414E+04   -0.36909E+04  4464   0.285E+02
DAV:   3    -0.348536115639E+03   -0.22358E+03   -0.20035E+03  4480   0.614E+01
DAV:   4    -0.356388113986E+03   -0.78520E+01   -0.75621E+01  4712   0.113E+01
DAV:   5    -0.356642588078E+03   -0.25447E+00   -0.25365E+00  4688   0.215E+00    0.514E+01
DAV:   6    -0.347005330181E+03    0.96373E+01   -0.67038E+01  4240   0.226E+01    0.396E+01
DAV:   7    -0.421648671972E+03   -0.74643E+02   -0.45778E+01  4656   0.590E+01    0.651E+01
DAV:   8    -0.361741174661E+03    0.59907E+02   -0.45111E+01  4456   0.330E+01    0.444E+01
DAV:   9    -0.345001622768E+03    0.16740E+02   -0.38865E+01  4256   0.287E+01    0.240E+01
DAV:  10    -0.342734749576E+03    0.22669E+01   -0.15874E+01  4136   0.177E+01    0.201E+01
DAV:  11    -0.340743051219E+03    0.19917E+01   -0.91459E+00  4192   0.145E+01    0.161E+01
DAV:  12    -0.339700977678E+03    0.10421E+01   -0.37579E+00  4152   0.879E+00    0.114E+01
DAV:  13    -0.339016387053E+03    0.68459E+00   -0.19008E+00  4152   0.586E+00    0.777E+00
DAV:  14    -0.338974321981E+03    0.42065E-01   -0.12523E+00  4128   0.431E+00    0.739E+00
DAV:  15    -0.338754561091E+03    0.21976E+00   -0.53940E-01  4168   0.309E+00    0.426E+00
DAV:  16    -0.338665865038E+03    0.88696E-01   -0.30803E-01  4128   0.251E+00    0.323E+00
DAV:  17    -0.338649351223E+03    0.16514E-01   -0.20397E-01  4120   0.184E+00    0.262E+00
DAV:  18    -0.338612052804E+03    0.37298E-01   -0.74362E-02  4152   0.118E+00    0.152E+00
DAV:  19    -0.338604132015E+03    0.79208E-02   -0.45429E-02  4216   0.883E-01    0.129E+00
DAV:  20    -0.338600191385E+03    0.39406E-02   -0.29039E-02  4184   0.662E-01    0.992E-01
DAV:  21    -0.338594845415E+03    0.53460E-02   -0.14457E-02  4216   0.499E-01    0.631E-01
DAV:  22    -0.338593156650E+03    0.16888E-02   -0.60984E-03  4192   0.326E-01    0.388E-01
DAV:  23    -0.338592862927E+03    0.29372E-03   -0.35394E-03  4264   0.237E-01    0.383E-01
DAV:  24    -0.338592246787E+03    0.61614E-03   -0.20120E-03  4208   0.168E-01    0.262E-01
DAV:  25    -0.338592159650E+03    0.87137E-04   -0.11270E-03  4168   0.130E-01    0.182E-01
DAV:  26    -0.338592248876E+03   -0.89226E-04   -0.71728E-04  4144   0.105E-01    0.142E-01
DAV:  27    -0.338592406141E+03   -0.15727E-03   -0.42468E-04  4056   0.744E-02    0.129E-01
DAV:  28    -0.338592518934E+03   -0.11279E-03   -0.33458E-04  4088   0.691E-02    0.878E-02
DAV:  29    -0.338592721085E+03   -0.20215E-03   -0.19116E-04  4120   0.509E-02    0.942E-02
DAV:  30    -0.338592995269E+03   -0.27418E-03   -0.15062E-04  4064   0.450E-02    0.669E-02
DAV:  31    -0.338593312856E+03   -0.31759E-03   -0.99083E-05  4072   0.371E-02    0.417E-02
DAV:  32    -0.338593762503E+03   -0.44965E-03   -0.94238E-05  4096   0.286E-02    0.515E-02
DAV:  33    -0.338593955096E+03   -0.19259E-03   -0.41500E-05  4224   0.227E-02    0.369E-02
DAV:  34    -0.338594135784E+03   -0.18069E-03   -0.23375E-05  4144   0.164E-02    0.328E-02
DAV:  35    -0.338594425995E+03   -0.29021E-03   -0.30971E-05  4144   0.173E-02    0.268E-02
DAV:  36    -0.338594583209E+03   -0.15721E-03   -0.17736E-05  4192   0.128E-02    0.207E-02
DAV:  37    -0.338594741060E+03   -0.15785E-03   -0.82655E-06  4224   0.102E-02    0.120E-02
DAV:  38    -0.338594890678E+03   -0.14962E-03   -0.44242E-06  4152   0.743E-03    0.133E-02
DAV:  39    -0.338595126091E+03   -0.23541E-03   -0.67002E-06  4144   0.796E-03    0.115E-02
DAV:  40    -0.338595226618E+03   -0.10053E-03   -0.29031E-06  4336   0.541E-03    0.104E-02
DAV:  41    -0.338595374753E+03   -0.14814E-03   -0.43210E-06  4112   0.403E-03    0.802E-03
DAV:  42    -0.338595422332E+03   -0.47579E-04   -0.14001E-06  4176   0.307E-03    0.469E-03
DAV:  43    -0.338595457455E+03   -0.35123E-04   -0.91671E-07  3368   0.218E-03    0.366E-03
DAV:  44    -0.338595473449E+03   -0.15993E-04   -0.44300E-07  3272   0.174E-03    0.181E-03
DAV:  45    -0.338595481918E+03   -0.84698E-05   -0.21603E-07  2920   0.958E-04    0.171E-03
DAV:  46    -0.338595486340E+03   -0.44217E-05   -0.11441E-07  2696   0.757E-04    0.121E-03
DAV:  47    -0.338595488259E+03   -0.19187E-05   -0.63668E-08  2472   0.504E-04    0.110E-03
DAV:  48    -0.338595489033E+03   -0.77468E-06   -0.30451E-08  2496   0.365E-04    0.685E-04
DAV:  49    -0.338595489497E+03   -0.46346E-06   -0.18222E-08  2392   0.217E-04    0.501E-04
DAV:  50    -0.338595489775E+03   -0.27796E-06   -0.11951E-08  2440   0.200E-04    0.360E-04
DAV:  51    -0.338595489938E+03   -0.16352E-06   -0.75184E-09  2456   0.194E-04    0.220E-04
DAV:  52    -0.338595490021E+03   -0.82349E-07   -0.44407E-09  2376   0.135E-04
   1 F= -.33859549E+03 E0= -.33849152E+03  d E =-.311924E+00
 Finite differences POTIM= 0.00200 DOF=   9
 bond charge predicted
       N       E                     dE             d eps       ncg     rms          rms(c)
DAV:   1    -0.338595368973E+03    0.12097E-03   -0.14385E-02  4000   0.674E-02    0.236E-02
DAV:   2    -0.338595375377E+03   -0.64034E-05   -0.95922E-05  4088   0.113E-02    0.183E-02
DAV:   3    -0.338595405570E+03   -0.30194E-04   -0.35248E-05  4520   0.259E-02    0.671E-02
DAV:   4    -0.338595383620E+03    0.21951E-04   -0.39187E-05  4464   0.280E-02    0.376E-02
DAV:   5    -0.338595376523E+03    0.70966E-05   -0.17585E-05  4440   0.173E-02    0.203E-02
DAV:   6    -0.338595374596E+03    0.19265E-05   -0.75906E-06  4216   0.107E-02    0.106E-02
DAV:   7    -0.338595374337E+03    0.25923E-06   -0.28464E-06  4160   0.661E-03    0.804E-03
DAV:   8    -0.338595373785E+03    0.55185E-06   -0.10161E-06  3416   0.421E-03    0.301E-03
DAV:   9    -0.338595373760E+03    0.25408E-07   -0.23625E-07  2368   0.186E-03
   2 F= -.33859537E+03 E0= -.33849140E+03  d E =-.311936E+00
 Finite differences progress:
  Degree of freedom:   1/  9
  Displacement:        1/  2
  Total:               1/ 18
 bond charge predicted
       N       E                     dE             d eps       ncg     rms          rms(c)
DAV:   1    -0.338595567805E+03   -0.19402E-03   -0.57542E-02  4000   0.135E-01    0.471E-02
DAV:   2    -0.338595594696E+03   -0.26891E-04   -0.38880E-04  4048   0.230E-02    0.379E-02
DAV:   3    -0.338595698260E+03   -0.10356E-03   -0.13573E-04  4464   0.496E-02    0.126E-01
DAV:   4    -0.338595639947E+03    0.58314E-04   -0.15635E-04  4440   0.560E-02    0.863E-02
DAV:   5    -0.338595597987E+03    0.41959E-04   -0.80228E-05  4440   0.372E-02    0.399E-02
DAV:   6    -0.338595589884E+03    0.81034E-05   -0.29204E-05  4112   0.215E-02    0.187E-02
DAV:   7    -0.338595588440E+03    0.14439E-05   -0.86886E-06  4104   0.114E-02    0.128E-02
DAV:   8    -0.338595587148E+03    0.12923E-05   -0.29523E-06  4096   0.693E-03    0.515E-03
DAV:   9    -0.338595587092E+03    0.55385E-07   -0.85165E-07  3400   0.341E-03
   3 F= -.33859559E+03 E0= -.33849162E+03  d E =-.311907E+00
 Finite differences progress:
  Degree of freedom:   1/  9
  Displacement:        2/  2
  Total:               2/ 18
 bond charge predicted
       N       E                     dE             d eps       ncg     rms          rms(c)
DAV:   1    -0.338595494766E+03    0.92382E-04   -0.28622E-02  4000   0.930E-02    0.324E-02
DAV:   2    -0.338595508864E+03   -0.14098E-04   -0.18906E-04  4048   0.172E-02    0.286E-02
DAV:   3    -0.338595532512E+03   -0.23648E-04   -0.49607E-05  4408   0.293E-02    0.646E-02
DAV:   4    -0.338595549611E+03   -0.17099E-04   -0.70115E-05  4480   0.371E-02    0.787E-02
DAV:   5    -0.338595509724E+03    0.39887E-04   -0.48329E-05  4456   0.305E-02    0.277E-02
DAV:   6    -0.338595505980E+03    0.37442E-05   -0.13218E-05  4144   0.151E-02    0.121E-02
DAV:   7    -0.338595506322E+03   -0.34207E-06   -0.53043E-06  4184   0.890E-03    0.135E-02
DAV:   8    -0.338595504906E+03    0.14152E-05   -0.22475E-06  4064   0.618E-03    0.412E-03
DAV:   9    -0.338595504843E+03    0.63163E-07   -0.39880E-07  2504   0.230E-03
   4 F= -.33859550E+03 E0= -.33849153E+03  d E =-.311927E+00
 Finite differences progress:
  Degree of freedom:   2/  9
  Displacement:        1/  2
  Total:               3/ 18
 bond charge predicted
       N       E                     dE             d eps       ncg     rms          rms(c)
DAV:   1    -0.338595439144E+03    0.65763E-04   -0.57399E-02  4000   0.133E-01    0.467E-02
DAV:   2    -0.338595466342E+03   -0.27198E-04   -0.39610E-04  4040   0.223E-02    0.357E-02
DAV:   3    -0.338595524189E+03   -0.57847E-04   -0.10140E-04  4440   0.420E-02    0.954E-02
DAV:   4    -0.338595529418E+03   -0.52294E-05   -0.12463E-04  4480   0.509E-02    0.991E-02
DAV:   5    -0.338595468426E+03    0.60992E-04   -0.90015E-05  4464   0.399E-02    0.383E-02
DAV:   6    -0.338595464244E+03    0.41820E-05   -0.30094E-05  4152   0.219E-02    0.245E-02
DAV:   7    -0.338595462016E+03    0.22281E-05   -0.12737E-05  4240   0.140E-02    0.176E-02
DAV:   8    -0.338595459456E+03    0.25604E-05   -0.43506E-06  4136   0.855E-03    0.471E-03
DAV:   9    -0.338595459472E+03   -0.16706E-07   -0.99396E-07  3952   0.341E-03
   5 F= -.33859546E+03 E0= -.33849149E+03  d E =-.311919E+00
 Finite differences progress:
  Degree of freedom:   2/  9
  Displacement:        2/  2
  Total:               4/ 18
 bond charge predicted
       N       E                     dE             d eps       ncg     rms          rms(c)
DAV:   1    -0.338595293442E+03    0.16601E-03   -0.31449E-02  4000   0.113E-01    0.624E-02
DAV:   2    -0.338595357658E+03   -0.64217E-04   -0.47672E-04  4064   0.564E-02    0.105E-01
DAV:   3    -0.338595368445E+03   -0.10787E-04   -0.18703E-04  4232   0.607E-02    0.113E-01
DAV:   4    -0.338595309860E+03    0.58585E-04   -0.13216E-04  4296   0.519E-02    0.686E-02
DAV:   5    -0.338595342018E+03   -0.32157E-04   -0.13005E-04  4320   0.476E-02    0.928E-02
DAV:   6    -0.338595294629E+03    0.47389E-04   -0.10826E-04  4400   0.421E-02    0.444E-02
DAV:   7    -0.338595282173E+03    0.12456E-04   -0.37514E-05  4248   0.255E-02    0.229E-02
DAV:   8    -0.338595280720E+03    0.14525E-05   -0.13896E-05  4240   0.151E-02    0.204E-02
DAV:   9    -0.338595277438E+03    0.32829E-05   -0.62449E-06  4192   0.104E-02    0.777E-03
DAV:  10    -0.338595277383E+03    0.54730E-07   -0.21476E-06  4184   0.560E-03    0.737E-03
DAV:  11    -0.338595277177E+03    0.20614E-06   -0.11251E-06  3520   0.419E-03    0.626E-03
DAV:  12    -0.338595276871E+03    0.30580E-06   -0.47466E-07  2672   0.286E-03    0.180E-03
DAV:  13    -0.338595276871E+03   -0.94587E-10   -0.11300E-07  2216   0.129E-03
   6 F= -.33859528E+03 E0= -.33849130E+03  d E =-.311941E+00
 Finite differences progress:
  Degree of freedom:   3/  9
  Displacement:        1/  2
  Total:               5/ 18
 bond charge predicted
       N       E                     dE             d eps       ncg     rms          rms(c)
DAV:   1    -0.338595256602E+03    0.20268E-04   -0.65968E-02  4000   0.173E-01    0.109E-01
DAV:   2    -0.338595471137E+03   -0.21453E-03   -0.12938E-03  4048   0.107E-01    0.200E-01
DAV:   3    -0.338595475738E+03   -0.46011E-05   -0.62352E-04  4216   0.112E-01    0.205E-01
DAV:   4    -0.338595253824E+03    0.22191E-03   -0.38866E-04  4328   0.894E-02    0.107E-01
DAV:   5    -0.338595387285E+03   -0.13346E-03   -0.38805E-04  4368   0.814E-02    0.165E-01
DAV:   6    -0.338595241857E+03    0.14543E-03   -0.34999E-04  4416   0.743E-02    0.857E-02
DAV:   7    -0.338595192838E+03    0.49019E-04   -0.12232E-04  4328   0.453E-02    0.382E-02
DAV:   8    -0.338595193303E+03   -0.46445E-06   -0.44521E-05  4264   0.267E-02    0.378E-02
DAV:   9    -0.338595181530E+03    0.11773E-04   -0.21752E-05  4248   0.193E-02    0.138E-02
DAV:  10    -0.338595181246E+03    0.28356E-06   -0.61708E-06  4136   0.935E-03    0.109E-02
DAV:  11    -0.338595181379E+03   -0.13282E-06   -0.31420E-06  4224   0.675E-03    0.112E-02
DAV:  12    -0.338595180493E+03    0.88637E-06   -0.14678E-06  3872   0.499E-03    0.326E-03
DAV:  13    -0.338595180554E+03   -0.61242E-07   -0.31384E-07  2552   0.225E-03
   7 F= -.33859518E+03 E0= -.33849121E+03  d E =-.311907E+00
 Finite differences progress:
  Degree of freedom:   3/  9
  Displacement:        2/  2
  Total:               6/ 18
 bond charge predicted
       N       E                     dE             d eps       ncg     rms          rms(c)
DAV:   1    -0.338595652627E+03   -0.47213E-03   -0.32516E-02  4000   0.142E-01    0.603E-02
DAV:   2    -0.338595705971E+03   -0.53344E-04   -0.47558E-04  4040   0.554E-02    0.101E-01
DAV:   3    -0.338595712219E+03   -0.62482E-05   -0.16856E-04  4200   0.578E-02    0.107E-01
DAV:   4    -0.338595659799E+03    0.52420E-04   -0.11844E-04  4312   0.489E-02    0.653E-02
DAV:   5    -0.338595692894E+03   -0.33095E-04   -0.11647E-04  4368   0.451E-02    0.896E-02
DAV:   6    -0.338595652423E+03    0.40471E-04   -0.10473E-04  4408   0.409E-02    0.469E-02
DAV:   7    -0.338595639279E+03    0.13143E-04   -0.39642E-05  4296   0.262E-02    0.243E-02
DAV:   8    -0.338595638423E+03    0.85659E-06   -0.15546E-05  4280   0.164E-02    0.223E-02
DAV:   9    -0.338595634117E+03    0.43062E-05   -0.72425E-06  4248   0.113E-02    0.735E-03
DAV:  10    -0.338595633972E+03    0.14492E-06   -0.18267E-06  4128   0.501E-03    0.538E-03
DAV:  11    -0.338595633929E+03    0.42892E-07   -0.77861E-07  3064   0.339E-03
   8 F= -.33859563E+03 E0= -.33849167E+03  d E =-.311906E+00
 Finite differences progress:
  Degree of freedom:   4/  9
  Displacement:        1/  2
  Total:               7/ 18
 bond charge predicted
       N       E                     dE             d eps       ncg     rms          rms(c)
DAV:   1    -0.338595331388E+03    0.30258E-03   -0.55972E-02  4000   0.203E-01    0.542E-02
DAV:   2    -0.338595330764E+03    0.62404E-06   -0.29633E-04  4016   0.165E-02    0.320E-02
DAV:   3    -0.338595419427E+03   -0.88663E-04   -0.13151E-04  4488   0.434E-02    0.111E-01
DAV:   4    -0.338595365203E+03    0.54225E-04   -0.14208E-04  4488   0.493E-02    0.702E-02
DAV:   5    -0.338595336204E+03    0.28999E-04   -0.43557E-05  4424   0.301E-02    0.292E-02
DAV:   6    -0.338595334959E+03    0.12448E-05   -0.19000E-05  4144   0.166E-02    0.210E-02
DAV:   7    -0.338595332515E+03    0.24439E-05   -0.80617E-06  4160   0.114E-02    0.117E-02
DAV:   8    -0.338595331493E+03    0.10227E-05   -0.25162E-06  4096   0.622E-03    0.465E-03
DAV:   9    -0.338595331622E+03   -0.12924E-06   -0.85542E-07  3688   0.365E-03    0.496E-03
DAV:  10    -0.338595331591E+03    0.31017E-07   -0.53233E-07  2624   0.304E-03
   9 F= -.33859533E+03 E0= -.33849136E+03  d E =-.311920E+00
 Finite differences progress:
  Degree of freedom:   4/  9
  Displacement:        2/  2
  Total:               8/ 18
 bond charge predicted
       N       E                     dE             d eps       ncg     rms          rms(c)
DAV:   1    -0.338595376378E+03   -0.44756E-04   -0.27866E-02  4000   0.142E-01    0.374E-02
DAV:   2    -0.338595378410E+03   -0.20320E-05   -0.15592E-04  4000   0.133E-02    0.268E-02
DAV:   3    -0.338595462243E+03   -0.83833E-04   -0.10102E-04  4616   0.418E-02    0.111E-01
DAV:   4    -0.338595417485E+03    0.44758E-04   -0.10882E-04  4584   0.475E-02    0.760E-02
DAV:   5    -0.338595379054E+03    0.38431E-04   -0.44050E-05  4528   0.279E-02    0.154E-02
DAV:   6    -0.338595381335E+03   -0.22816E-05   -0.11079E-05  4192   0.124E-02    0.189E-02
DAV:   7    -0.338595378946E+03    0.23895E-05   -0.56140E-06  4144   0.943E-03    0.866E-03
DAV:   8    -0.338595378456E+03    0.49012E-06   -0.13655E-06  3936   0.448E-03    0.341E-03
DAV:   9    -0.338595378519E+03   -0.63519E-07   -0.43940E-07  2584   0.251E-03
  10 F= -.33859538E+03 E0= -.33849140E+03  d E =-.311928E+00
 Finite differences progress:
  Degree of freedom:   5/  9
  Displacement:        1/  2
  Total:               9/ 18
 bond charge predicted
       N       E                     dE             d eps       ncg     rms          rms(c)
DAV:   1    -0.338595586530E+03   -0.20807E-03   -0.55894E-02  4000   0.202E-01    0.539E-02
DAV:   2    -0.338595593379E+03   -0.68488E-05   -0.32817E-04  4000   0.186E-02    0.365E-02
DAV:   3    -0.338595711587E+03   -0.11821E-03   -0.15318E-04  4504   0.528E-02    0.132E-01
DAV:   4    -0.338595672389E+03    0.39198E-04   -0.18260E-04  4560   0.618E-02    0.108E-01
DAV:   5    -0.338595592716E+03    0.79673E-04   -0.97206E-05  4456   0.404E-02    0.258E-02
DAV:   6    -0.338595596408E+03   -0.36918E-05   -0.24934E-05  4192   0.186E-02    0.284E-02
DAV:   7    -0.338595591344E+03    0.50645E-05   -0.12654E-05  4184   0.138E-02    0.127E-02
DAV:   8    -0.338595590234E+03    0.11100E-05   -0.30218E-06  4112   0.691E-03    0.536E-03
DAV:   9    -0.338595590285E+03   -0.51587E-07   -0.10232E-06  4000   0.386E-03    0.545E-03
DAV:  10    -0.338595590276E+03    0.96989E-08   -0.68790E-07  2704   0.332E-03
  11 F= -.33859559E+03 E0= -.33849162E+03  d E =-.311919E+00
 Finite differences progress:
  Degree of freedom:   5/  9
  Displacement:        2/  2
  Total:              10/ 18
 bond charge predicted
       N       E                     dE             d eps       ncg     rms          rms(c)
DAV:   1    -0.338595244677E+03    0.34561E-03   -0.30920E-02  4000   0.141E-01    0.540E-02
DAV:   2    -0.338595234135E+03    0.10542E-04   -0.27210E-04  4064   0.204E-02    0.414E-02
DAV:   3    -0.338595424608E+03   -0.19047E-03   -0.19056E-04  4616   0.619E-02    0.168E-01
DAV:   4    -0.338595246257E+03    0.17835E-03   -0.20421E-04  4656   0.634E-02    0.610E-02
DAV:   5    -0.338595241210E+03    0.50464E-05   -0.70347E-05  4416   0.352E-02    0.516E-02
DAV:   6    -0.338595227111E+03    0.14100E-04   -0.38516E-05  4360   0.244E-02    0.237E-02
DAV:   7    -0.338595225897E+03    0.12138E-05   -0.14446E-05  4312   0.160E-02    0.197E-02
DAV:   8    -0.338595222915E+03    0.29819E-05   -0.65493E-06  4200   0.113E-02    0.880E-03
DAV:   9    -0.338595223162E+03   -0.24687E-06   -0.28210E-06  4224   0.633E-03    0.985E-03
DAV:  10    -0.338595222792E+03    0.37018E-06   -0.14519E-06  3856   0.481E-03    0.606E-03
DAV:  11    -0.338595222527E+03    0.26472E-06   -0.48124E-07  2648   0.299E-03    0.234E-03
DAV:  12    -0.338595222543E+03   -0.16378E-07   -0.15755E-07  2224   0.149E-03
  12 F= -.33859522E+03 E0= -.33849125E+03  d E =-.311927E+00
 Finite differences progress:
  Degree of freedom:   6/  9
  Displacement:        1/  2
  Total:              11/ 18
 bond charge predicted
       N       E                     dE             d eps       ncg     rms          rms(c)
DAV:   1    -0.338595302092E+03   -0.79565E-04   -0.65466E-02  4000   0.193E-01    0.901E-02
DAV:   2    -0.338595261173E+03    0.40919E-04   -0.69833E-04  4152   0.323E-02    0.633E-02
DAV:   3    -0.338595535088E+03   -0.27391E-03   -0.34215E-04  4296   0.826E-02    0.203E-01
DAV:   4    -0.338595358160E+03    0.17693E-03   -0.45451E-04  4560   0.951E-02    0.134E-01
DAV:   5    -0.338595276660E+03    0.81499E-04   -0.19965E-04  4464   0.636E-02    0.806E-02
DAV:   6    -0.338595245575E+03    0.31086E-04   -0.10118E-04  4312   0.396E-02    0.432E-02
DAV:   7    -0.338595240291E+03    0.52835E-05   -0.43298E-05  4368   0.276E-02    0.337E-02
DAV:   8    -0.338595230421E+03    0.98699E-05   -0.18550E-05  4208   0.191E-02    0.120E-02
DAV:   9    -0.338595231110E+03   -0.68836E-06   -0.70031E-06  4184   0.104E-02    0.149E-02
DAV:  10    -0.338595229937E+03    0.11724E-05   -0.39804E-06  4152   0.795E-03    0.104E-02
DAV:  11    -0.338595229224E+03    0.71280E-06   -0.13627E-06  3704   0.452E-03    0.333E-03
DAV:  12    -0.338595229304E+03   -0.79526E-07   -0.39550E-07  2464   0.234E-03
  13 F= -.33859523E+03 E0= -.33849125E+03  d E =-.311937E+00
 Finite differences progress:
  Degree of freedom:   6/  9
  Displacement:        2/  2
  Total:              12/ 18
 bond charge predicted
       N       E                     dE             d eps       ncg     rms          rms(c)
DAV:   1    -0.338595615529E+03   -0.38630E-03   -0.37717E-02  4000   0.229E-01    0.598E-02
DAV:   2    -0.338595692600E+03   -0.77071E-04   -0.87022E-04  4048   0.521E-02    0.757E-02
DAV:   3    -0.338595669204E+03    0.23396E-04   -0.10927E-04  4120   0.475E-02    0.515E-02
DAV:   4    -0.338595771547E+03   -0.10234E-03   -0.17009E-04  4464   0.549E-02    0.130E-01
DAV:   5    -0.338595704077E+03    0.67470E-04   -0.16034E-04  4440   0.575E-02    0.878E-02
DAV:   6    -0.338595658976E+03    0.45101E-04   -0.78946E-05  4400   0.365E-02    0.364E-02
DAV:   7    -0.338595659806E+03   -0.82920E-06   -0.38153E-05  4264   0.236E-02    0.330E-02
DAV:   8    -0.338595652450E+03    0.73557E-05   -0.16622E-05  4240   0.173E-02    0.147E-02
DAV:   9    -0.338595651075E+03    0.13754E-05   -0.53772E-06  4152   0.908E-03    0.828E-03
DAV:  10    -0.338595651331E+03   -0.25628E-06   -0.22645E-06  4200   0.577E-03    0.909E-03
DAV:  11    -0.338595650791E+03    0.53967E-06   -0.10194E-06  3336   0.424E-03    0.375E-03
DAV:  12    -0.338595650763E+03    0.27947E-07   -0.32175E-07  2424   0.223E-03
  14 F= -.33859565E+03 E0= -.33849168E+03  d E =-.311902E+00
 Finite differences progress:
  Degree of freedom:   7/  9
  Displacement:        1/  2
  Total:              13/ 18
 bond charge predicted
       N       E                     dE             d eps       ncg     rms          rms(c)
DAV:   1    -0.338595205073E+03    0.44572E-03   -0.86502E-02  4000   0.370E-01    0.710E-02
DAV:   2    -0.338595449328E+03   -0.24425E-03   -0.16925E-03  4016   0.906E-02    0.135E-01
DAV:   3    -0.338595327931E+03    0.12140E-03   -0.18390E-04  4144   0.624E-02    0.526E-02
DAV:   4    -0.338595445011E+03   -0.11708E-03   -0.20648E-04  4328   0.580E-02    0.137E-01
DAV:   5    -0.338595457779E+03   -0.12769E-04   -0.24845E-04  4472   0.704E-02    0.140E-01
DAV:   6    -0.338595330739E+03    0.12704E-03   -0.15687E-04  4440   0.530E-02    0.501E-02
DAV:   7    -0.338595321908E+03    0.88313E-05   -0.49038E-05  4256   0.268E-02    0.303E-02
DAV:   8    -0.338595319527E+03    0.23813E-05   -0.17582E-05  4152   0.176E-02    0.217E-02
DAV:   9    -0.338595315491E+03    0.40359E-05   -0.67164E-06  4128   0.111E-02    0.645E-03
DAV:  10    -0.338595315497E+03   -0.63083E-08   -0.13601E-06  4040   0.396E-03    0.594E-03
DAV:  11    -0.338595315439E+03    0.57626E-07   -0.59987E-07  2688   0.306E-03
  15 F= -.33859532E+03 E0= -.33849134E+03  d E =-.311930E+00
 Finite differences progress:
  Degree of freedom:   7/  9
  Displacement:        2/  2
  Total:              14/ 18
 bond charge predicted
       N       E                     dE             d eps       ncg     rms          rms(c)
DAV:   1    -0.338596619619E+03   -0.13041E-02   -0.43209E-02  4000   0.261E-01    0.534E-02
DAV:   2    -0.338596748777E+03   -0.12916E-03   -0.84158E-04  4000   0.679E-02    0.104E-01
DAV:   3    -0.338596681311E+03    0.67466E-04   -0.98766E-05  4120   0.462E-02    0.486E-02
DAV:   4    -0.338596761322E+03   -0.80011E-04   -0.11054E-04  4400   0.471E-02    0.115E-01
DAV:   5    -0.338596725221E+03    0.36101E-04   -0.14819E-04  4448   0.528E-02    0.876E-02
DAV:   6    -0.338596681068E+03    0.44153E-04   -0.81922E-05  4400   0.356E-02    0.400E-02
DAV:   7    -0.338596673630E+03    0.74377E-05   -0.31128E-05  4312   0.209E-02    0.227E-02
DAV:   8    -0.338596672666E+03    0.96426E-06   -0.10640E-05  4160   0.134E-02    0.171E-02
DAV:   9    -0.338596670150E+03    0.25159E-05   -0.41920E-06  4128   0.863E-03    0.494E-03
DAV:  10    -0.338596670099E+03    0.50662E-07   -0.79872E-07  3824   0.298E-03
  16 F= -.33859667E+03 E0= -.33849271E+03  d E =-.311880E+00
 Finite differences progress:
  Degree of freedom:   8/  9
  Displacement:        1/  2
  Total:              15/ 18
 bond charge predicted
       N       E                     dE             d eps       ncg     rms          rms(c)
DAV:   1    -0.338594183549E+03    0.24866E-02   -0.86217E-02  4000   0.364E-01    0.830E-02
DAV:   2    -0.338594459349E+03   -0.27580E-03   -0.17155E-03  4016   0.101E-01    0.162E-01
DAV:   3    -0.338594308334E+03    0.15102E-03   -0.21010E-04  4128   0.656E-02    0.794E-02
DAV:   4    -0.338594472350E+03   -0.16402E-03   -0.25297E-04  4376   0.681E-02    0.169E-01
DAV:   5    -0.338594472468E+03   -0.11789E-06   -0.36398E-04  4464   0.857E-02    0.164E-01
DAV:   6    -0.338594312384E+03    0.16008E-03   -0.24783E-04  4432   0.630E-02    0.654E-02
DAV:   7    -0.338594289836E+03    0.22548E-04   -0.78459E-05  4280   0.350E-02    0.341E-02
DAV:   8    -0.338594287818E+03    0.20177E-05   -0.26131E-05  4144   0.209E-02    0.263E-02
DAV:   9    -0.338594282045E+03    0.57728E-05   -0.10435E-05  4120   0.135E-02    0.897E-03
DAV:  10    -0.338594281856E+03    0.18960E-06   -0.20224E-06  4056   0.495E-03    0.667E-03
DAV:  11    -0.338594281732E+03    0.12395E-06   -0.70099E-07  3224   0.322E-03    0.439E-03
DAV:  12    -0.338594281700E+03    0.32254E-07   -0.38960E-07  2528   0.243E-03
  17 F= -.33859428E+03 E0= -.33849029E+03  d E =-.311972E+00
 Finite differences progress:
  Degree of freedom:   8/  9
  Displacement:        2/  2
  Total:              16/ 18
 bond charge predicted
       N       E                     dE             d eps       ncg     rms          rms(c)
DAV:   1    -0.338594650654E+03   -0.36892E-03   -0.43098E-02  4000   0.259E-01    0.652E-02
DAV:   2    -0.338594819011E+03   -0.16836E-03   -0.86611E-04  4040   0.728E-02    0.140E-01
DAV:   3    -0.338594740176E+03    0.78836E-04   -0.13281E-04  4112   0.495E-02    0.904E-02
DAV:   4    -0.338594749880E+03   -0.97046E-05   -0.10966E-04  4288   0.485E-02    0.966E-02
DAV:   5    -0.338594780823E+03   -0.30943E-04   -0.14134E-04  4328   0.512E-02    0.109E-01
DAV:   6    -0.338594716664E+03    0.64160E-04   -0.14438E-04  4304   0.460E-02    0.544E-02
DAV:   7    -0.338594701912E+03    0.14752E-04   -0.46866E-05  4384   0.264E-02    0.273E-02
DAV:   8    -0.338594701085E+03    0.82710E-06   -0.21767E-05  4160   0.175E-02    0.221E-02
DAV:   9    -0.338594697460E+03    0.36250E-05   -0.90039E-06  4152   0.120E-02    0.925E-03
DAV:  10    -0.338594696876E+03    0.58349E-06   -0.17596E-06  4176   0.510E-03    0.544E-03
DAV:  11    -0.338594696708E+03    0.16781E-06   -0.50407E-07  2976   0.256E-03    0.303E-03
DAV:  12    -0.338594696742E+03   -0.33288E-07   -0.18608E-07  2232   0.166E-03
  18 F= -.33859470E+03 E0= -.33849068E+03  d E =-.312061E+00
 Finite differences progress:
  Degree of freedom:   9/  9
  Displacement:        1/  2
  Total:              17/ 18
 bond charge predicted
       N       E                     dE             d eps       ncg     rms          rms(c)
DAV:   1    -0.338596136075E+03   -0.14394E-02   -0.86539E-02  4000   0.371E-01    0.827E-02
DAV:   2    -0.338596610097E+03   -0.47402E-03   -0.18251E-03  4056   0.107E-01    0.242E-01
DAV:   3    -0.338596300770E+03    0.30933E-03   -0.31552E-04  4096   0.715E-02    0.119E-01
DAV:   4    -0.338596317768E+03   -0.16998E-04   -0.12659E-04  4408   0.550E-02    0.122E-01
DAV:   5    -0.338596358225E+03   -0.40457E-04   -0.20850E-04  4336   0.615E-02    0.129E-01
DAV:   6    -0.338596261257E+03    0.96967E-04   -0.20557E-04  4368   0.550E-02    0.620E-02
DAV:   7    -0.338596255110E+03    0.61475E-05   -0.60968E-05  4280   0.312E-02    0.476E-02
DAV:   8    -0.338596244872E+03    0.10238E-04   -0.33486E-05  4328   0.227E-02    0.248E-02
DAV:   9    -0.338596241347E+03    0.35253E-05   -0.13310E-05  4168   0.148E-02    0.132E-02
DAV:  10    -0.338596240241E+03    0.11060E-05   -0.30247E-06  4280   0.706E-03    0.655E-03
DAV:  11    -0.338596240148E+03    0.92819E-07   -0.84632E-07  3656   0.333E-03
  19 F= -.33859624E+03 E0= -.33849231E+03  d E =-.311799E+00
 Finite differences progress:
  Degree of freedom:   9/  9
  Displacement:        2/  2
  Total:              18/ 18
 Finite differences POTIM=  2.000000000000000E-003
