<?xml version="1.0" encoding="ISO-8859-1"?>
<modeling>
 <generator>
  <i name="program" type="string">vasp </i>
  <i name="version" type="string">5.4.4.18Apr17-6-g9f103f2a35  </i>
  <i name="subversion" type="string">(build Aug 16 2021 22:57:11) complex            parallel </i>
  <i name="platform" type="string">LinuxIFC </i>
  <i name="date" type="string">2021 12 19 </i>
  <i name="time" type="string">08:01:26 </i>
 </generator>
 <incar>
  <i type="string" name="SYSTEM"> Si-Diamond</i>
  <i type="int" name="ISTART">     0</i>
  <i type="string" name="PREC">normal</i>
  <i type="int" name="ICHARG">     2</i>
  <i type="int" name="NELMIN">     5</i>
  <i type="int" name="IBRION">     5</i>
  <i name="EDIFF">      0.00000010</i>
  <i type="int" name="NSW">  1000</i>
  <i type="int" name="ISIF">     2</i>
  <i type="int" name="ISYM">     0</i>
  <i name="ENCUT">    400.00000000</i>
  <i name="POTIM">      0.00200000</i>
  <i type="logical" name="LREAL"> F  </i>
  <i type="logical" name="LWAVE"> F  </i>
  <i type="logical" name="LCHARG"> F  </i>
  <v type="int" name="KPOINT_BSE">    -1     0     0     0</v>
 </incar>
 <structure name="primitive_cell" >
  <crystal>
   <varray name="basis" >
    <v>      11.14491190       0.00000000       0.00000000 </v>
    <v>       5.57245595       9.65177683       0.00000000 </v>
    <v>       0.00000000       0.00000000      21.82483685 </v>
   </varray>
   <i name="volume">   2347.65846769 </i>
   <varray name="rec_basis" >
    <v>       0.08972704      -0.05180393       0.00000000 </v>
    <v>       0.00000000       0.10360787       0.00000000 </v>
    <v>       0.00000000       0.00000000       0.04581936 </v>
   </varray>
  </crystal>
  <varray name="positions" >
   <v>       0.00000000       0.00000000       0.34364518 </v>
   <v>      -0.16666667       0.08333333       0.44788173 </v>
   <v>       0.08333333      -0.16666667       0.44788173 </v>
   <v>       0.08333333       0.08333333       0.44788173 </v>
   <v>      -0.25000000       0.25000000       0.34364518 </v>
   <v>       0.25000000       0.00000000       0.34364518 </v>
   <v>      -0.25000000       0.00000000       0.34364518 </v>
   <v>       0.00000000       0.25000000       0.34364518 </v>
   <v>       0.25000000      -0.25000000       0.34364518 </v>
   <v>       0.00000000      -0.25000000       0.34364518 </v>
   <v>      -0.16666667      -0.16666667       0.44788173 </v>
   <v>       0.33333333      -0.16666667       0.44788173 </v>
   <v>      -0.16666667       0.33333333       0.44788173 </v>
   <v>      -0.41666667       0.08333333       0.44788173 </v>
   <v>       0.08333333      -0.41666667       0.44788173 </v>
   <v>      -0.41666667       0.33333333       0.44788173 </v>
   <v>       0.33333333      -0.41666667       0.44788173 </v>
   <v>       0.33333333       0.08333333       0.44788173 </v>
   <v>       0.08333333       0.33333333       0.44788173 </v>
   <v>      -0.50000000       0.25000000       0.34364518 </v>
   <v>       0.25000000      -0.50000000       0.34364518 </v>
   <v>      -0.25000000      -0.50000000       0.34364518 </v>
   <v>       0.25000000       0.25000000       0.34364518 </v>
   <v>      -0.50000000      -0.25000000       0.34364518 </v>
   <v>      -0.25000000      -0.25000000       0.34364518 </v>
   <v>       0.16666667      -0.08333333      -0.44687177 </v>
   <v>      -0.08333333       0.16666667      -0.44687177 </v>
   <v>      -0.08333333      -0.08333333      -0.44687177 </v>
   <v>       0.00000000      -0.50000000       0.34364518 </v>
   <v>      -0.50000000      -0.50000000       0.34364518 </v>
   <v>      -0.50000000       0.00000000       0.34364518 </v>
   <v>       0.16666667       0.16666667      -0.44687177 </v>
   <v>      -0.33333333       0.16666667      -0.44687177 </v>
   <v>       0.16666667      -0.33333333      -0.44687177 </v>
   <v>      -0.41666667      -0.16666667       0.44788173 </v>
   <v>      -0.16666667      -0.41666667       0.44788173 </v>
   <v>      -0.41666667      -0.41666667       0.44788173 </v>
   <v>       0.41666667      -0.08333333      -0.44687177 </v>
   <v>      -0.08333333       0.41666667      -0.44687177 </v>
   <v>       0.41666667      -0.33333333      -0.44687177 </v>
   <v>      -0.33333333       0.41666667      -0.44687177 </v>
   <v>      -0.33333333      -0.08333333      -0.44687177 </v>
   <v>      -0.08333333      -0.33333333      -0.44687177 </v>
   <v>       0.33333333       0.33333333       0.44788173 </v>
   <v>       0.00000000       0.00000000      -0.34060789 </v>
   <v>       0.41666667       0.16666667      -0.44687177 </v>
   <v>       0.16666667       0.41666667      -0.44687177 </v>
   <v>       0.41666667       0.41666667      -0.44687177 </v>
   <v>      -0.25000000       0.25000000      -0.34060789 </v>
   <v>       0.25000000       0.00000000      -0.34060789 </v>
   <v>      -0.25000000       0.00000000      -0.34060789 </v>
   <v>       0.00000000       0.25000000      -0.34060789 </v>
   <v>       0.25000000      -0.25000000      -0.34060789 </v>
   <v>       0.00000000      -0.25000000      -0.34060789 </v>
   <v>      -0.33333333      -0.33333333      -0.44687177 </v>
   <v>      -0.08196612       0.15679248      -0.28443287 </v>
   <v>      -0.50000000       0.25000000      -0.34060789 </v>
   <v>       0.25000000       0.25000000      -0.34060789 </v>
   <v>       0.25000000      -0.50000000      -0.34060789 </v>
   <v>      -0.25000000      -0.50000000      -0.34060789 </v>
   <v>      -0.50000000      -0.25000000      -0.34060789 </v>
   <v>      -0.25000000      -0.25000000      -0.34060789 </v>
   <v>       0.00000000      -0.50000000      -0.34060789 </v>
   <v>      -0.50000000       0.00000000      -0.34060789 </v>
   <v>      -0.50000000      -0.50000000      -0.34060789 </v>
   <v>       0.24372665       0.00887062      -0.24772265 </v>
   <v>       0.22051012       0.02428829      -0.19719973 </v>
  </varray>
 </structure>
 <varray name="primitive_index" >
  <v type="int" >        1 </v>
  <v type="int" >       20 </v>
  <v type="int" >       29 </v>
  <v type="int" >       17 </v>
  <v type="int" >        8 </v>
  <v type="int" >        2 </v>
  <v type="int" >        4 </v>
  <v type="int" >        5 </v>
  <v type="int" >       14 </v>
  <v type="int" >       13 </v>
  <v type="int" >       32 </v>
  <v type="int" >       30 </v>
  <v type="int" >       24 </v>
  <v type="int" >       19 </v>
  <v type="int" >       25 </v>
  <v type="int" >       23 </v>
  <v type="int" >       26 </v>
  <v type="int" >       18 </v>
  <v type="int" >       21 </v>
  <v type="int" >        7 </v>
  <v type="int" >       10 </v>
  <v type="int" >       12 </v>
  <v type="int" >        6 </v>
  <v type="int" >       15 </v>
  <v type="int" >       16 </v>
  <v type="int" >       46 </v>
  <v type="int" >       33 </v>
  <v type="int" >       45 </v>
  <v type="int" >        9 </v>
  <v type="int" >       11 </v>
  <v type="int" >        3 </v>
  <v type="int" >       34 </v>
  <v type="int" >       36 </v>
  <v type="int" >       42 </v>
  <v type="int" >       31 </v>
  <v type="int" >       28 </v>
  <v type="int" >       27 </v>
  <v type="int" >       47 </v>
  <v type="int" >       37 </v>
  <v type="int" >       43 </v>
  <v type="int" >       40 </v>
  <v type="int" >       48 </v>
  <v type="int" >       41 </v>
  <v type="int" >       22 </v>
  <v type="int" >       49 </v>
  <v type="int" >       35 </v>
  <v type="int" >       38 </v>
  <v type="int" >       39 </v>
  <v type="int" >       56 </v>
  <v type="int" >       50 </v>
  <v type="int" >       52 </v>
  <v type="int" >       53 </v>
  <v type="int" >       62 </v>
  <v type="int" >       61 </v>
  <v type="int" >       44 </v>
  <v type="int" >       67 </v>
  <v type="int" >       55 </v>
  <v type="int" >       54 </v>
  <v type="int" >       58 </v>
  <v type="int" >       60 </v>
  <v type="int" >       63 </v>
  <v type="int" >       64 </v>
  <v type="int" >       57 </v>
  <v type="int" >       51 </v>
  <v type="int" >       59 </v>
  <v type="int" >       65 </v>
  <v type="int" >       66 </v>
 </varray>
 <kpoints>
  <generation param="Monkhorst-Pack">
   <v type="int" name="divisions">       3        3        1 </v>
   <v name="usershift">      0.00000000       0.00000000       0.00000000 </v>
   <v name="genvec1">      0.33333333       0.00000000       0.00000000 </v>
   <v name="genvec2">      0.00000000       0.33333333       0.00000000 </v>
   <v name="genvec3">      0.00000000       0.00000000       1.00000000 </v>
   <v name="shift">      0.00000000       0.00000000       0.00000000 </v>
  </generation>
  <varray name="kpointlist" >
   <v>       0.00000000       0.00000000       0.00000000 </v>
   <v>       0.33333333      -0.00000000       0.00000000 </v>
   <v>       0.00000000       0.33333333       0.00000000 </v>
   <v>       0.33333333       0.33333333       0.00000000 </v>
   <v>      -0.33333333       0.33333333       0.00000000 </v>
  </varray>
  <varray name="weights" >
   <v>       0.11111111 </v>
   <v>       0.22222222 </v>
   <v>       0.22222222 </v>
   <v>       0.22222222 </v>
   <v>       0.22222222 </v>
  </varray>
 </kpoints>
 <parameters>
  <separator name="general" >
   <i type="string" name="SYSTEM">Si-Diamond</i>
   <i type="logical" name="LCOMPAT"> F  </i>
  </separator>
  <separator name="electronic" >
   <i type="string" name="PREC">normal</i>
   <i name="ENMAX">    400.00000000</i>
   <i name="ENAUG">    627.11200000</i>
   <i name="EDIFF">      0.00000010</i>
   <i type="int" name="IALGO">    38</i>
   <i type="int" name="IWAVPR">    11</i>
   <i type="int" name="NBANDS">   400</i>
   <i name="NELECT">    656.00000000</i>
   <i type="int" name="TURBO">     0</i>
   <i type="int" name="IRESTART">     0</i>
   <i type="int" name="NREBOOT">     0</i>
   <i type="int" name="NMIN">     0</i>
   <i name="EREF">      0.00000000</i>
   <separator name="electronic smearing" >
    <i type="int" name="ISMEAR">     1</i>
    <i name="SIGMA">      0.20000000</i>
    <i name="KSPACING">      0.50000000</i>
    <i type="logical" name="KGAMMA"> T  </i>
   </separator>
   <separator name="electronic projectors" >
    <i type="logical" name="LREAL"> F  </i>
    <v name="ROPT">      0.00000000      0.00000000      0.00000000</v>
    <i type="int" name="LMAXPAW">  -100</i>
    <i type="int" name="LMAXMIX">     2</i>
    <i type="logical" name="NLSPLINE"> F  </i>
   </separator>
   <separator name="electronic startup" >
    <i type="int" name="ISTART">     0</i>
    <i type="int" name="ICHARG">     2</i>
    <i type="int" name="INIWAV">     1</i>
   </separator>
   <separator name="electronic spin" >
    <i type="int" name="ISPIN">     1</i>
    <i type="logical" name="LNONCOLLINEAR"> F  </i>
    <v name="MAGMOM">      1.00000000      1.00000000      1.00000000      1.00000000      1.00000000      1.00000000      1.00000000      1.00000000      1.00000000      1.00000000      1.00000000      1.00000000      1.00000000      1.00000000      1.00000000      1.00000000      1.00000000      1.00000000      1.00000000      1.00000000
      1.00000000      1.00000000      1.00000000      1.00000000      1.00000000      1.00000000      1.00000000      1.00000000      1.00000000      1.00000000      1.00000000      1.00000000      1.00000000      1.00000000      1.00000000      1.00000000      1.00000000      1.00000000      1.00000000      1.00000000
      1.00000000      1.00000000      1.00000000      1.00000000      1.00000000      1.00000000      1.00000000      1.00000000      1.00000000      1.00000000      1.00000000      1.00000000      1.00000000      1.00000000      1.00000000      1.00000000      1.00000000      1.00000000      1.00000000      1.00000000
      1.00000000      1.00000000      1.00000000      1.00000000      1.00000000      1.00000000      1.00000000</v>
    <i name="NUPDOWN">     -1.00000000</i>
    <i type="logical" name="LSORBIT"> F  </i>
    <v name="SAXIS">      0.00000000      0.00000000      1.00000000</v>
    <i type="logical" name="LSPIRAL"> F  </i>
    <v name="QSPIRAL">      0.00000000      0.00000000      0.00000000</v>
    <i type="logical" name="LZEROZ"> F  </i>
   </separator>
   <separator name="electronic exchange-correlation" >
    <i type="logical" name="LASPH"> F  </i>
    <i type="logical" name="LMETAGGA"> F  </i>
   </separator>
   <separator name="electronic convergence" >
    <i type="int" name="NELM">    60</i>
    <i type="int" name="NELMDL">    -5</i>
    <i type="int" name="NELMIN">     5</i>
    <i name="ENINI">    400.00000000</i>
    <separator name="electronic convergence detail" >
     <i type="logical" name="LDIAG"> T  </i>
     <i type="logical" name="LSUBROT"> F  </i>
     <i name="WEIMIN">      0.00100000</i>
     <i name="EBREAK">      0.00000000</i>
     <i name="DEPER">      0.30000000</i>
     <i type="int" name="NRMM">     4</i>
     <i name="TIME">      0.40000000</i>
    </separator>
   </separator>
   <separator name="electronic mixer" >
    <i name="AMIX">      0.40000000</i>
    <i name="BMIX">      1.00000000</i>
    <i name="AMIN">      0.10000000</i>
    <i name="AMIX_MAG">      1.60000000</i>
    <i name="BMIX_MAG">      1.00000000</i>
    <separator name="electronic mixer details" >
     <i type="int" name="IMIX">     4</i>
     <i type="logical" name="MIXFIRST"> F  </i>
     <i type="int" name="MAXMIX">   -45</i>
     <i name="WC">    100.00000000</i>
     <i type="int" name="INIMIX">     1</i>
     <i type="int" name="MIXPRE">     1</i>
     <i type="int" name="MREMOVE">     5</i>
    </separator>
   </separator>
   <separator name="electronic dipolcorrection" >
    <i type="logical" name="LDIPOL"> F  </i>
    <i type="logical" name="LMONO"> F  </i>
    <i type="int" name="IDIPOL">     0</i>
    <i name="EPSILON">      1.00000000</i>
    <v name="DIPOL">   -100.00000000   -100.00000000   -100.00000000</v>
    <i name="EFIELD">      0.00000000</i>
   </separator>
  </separator>
  <separator name="grids" >
   <i type="int" name="NGX">    56</i>
   <i type="int" name="NGY">    56</i>
   <i type="int" name="NGZ">   108</i>
   <i type="int" name="NGXF">   112</i>
   <i type="int" name="NGYF">   112</i>
   <i type="int" name="NGZF">   216</i>
   <i type="logical" name="ADDGRID"> F  </i>
  </separator>
  <separator name="ionic" >
   <i type="int" name="NSW">   841</i>
   <i type="int" name="IBRION">     5</i>
   <i type="int" name="MDALGO">     0</i>
   <i type="int" name="ISIF">     2</i>
   <i name="PSTRESS">      0.00000000</i>
   <i name="EDIFFG">      0.00000100</i>
   <i type="int" name="NFREE">     2</i>
   <i name="POTIM">      0.00200000</i>
   <i name="SMASS">     -3.00000000</i>
   <i name="SCALEE">      1.00000000</i>
  </separator>
  <separator name="ionic md" >
   <i name="TEBEG">      0.00010000</i>
   <i name="TEEND">      0.00010000</i>
   <i type="int" name="NBLOCK">     1</i>
   <i type="int" name="KBLOCK">   841</i>
   <i type="int" name="NPACO">   256</i>
   <i name="APACO">     16.00000000</i>
  </separator>
  <separator name="symmetry" >
   <i type="int" name="ISYM">     0</i>
   <i name="SYMPREC">      0.00001000</i>
  </separator>
  <separator name="dos" >
   <i type="int" name="LORBIT">     0</i>
   <v name="RWIGS">     -1.00000000     -1.00000000     -1.00000000</v>
   <i type="int" name="NEDOS">   301</i>
   <i name="EMIN">     10.00000000</i>
   <i name="EMAX">    -10.00000000</i>
   <i name="EFERMI">      0.00000000</i>
  </separator>
  <separator name="writing" >
   <i type="int" name="NWRITE">     2</i>
   <i type="logical" name="LWAVE"> F  </i>
   <i type="logical" name="LDOWNSAMPLE"> F  </i>
   <i type="logical" name="LCHARG"> F  </i>
   <i type="logical" name="LPARD"> F  </i>
   <i type="logical" name="LVTOT"> F  </i>
   <i type="logical" name="LVHAR"> F  </i>
   <i type="logical" name="LELF"> F  </i>
   <i type="logical" name="LOPTICS"> F  </i>
   <v name="STM">      0.00000000      0.00000000      0.00000000      0.00000000      0.00000000      0.00000000      0.00000000</v>
  </separator>
  <separator name="performance" >
   <i type="int" name="NPAR">     8</i>
   <i type="int" name="NSIM">     4</i>
   <i type="int" name="NBLK">    -1</i>
   <i type="logical" name="LPLANE"> T  </i>
   <i type="logical" name="LSCALAPACK"> T  </i>
   <i type="logical" name="LSCAAWARE"> T  </i>
   <i type="logical" name="LSCALU"> F  </i>
   <i type="logical" name="LASYNC"> F  </i>
   <i type="logical" name="LORBITALREAL"> F  </i>
  </separator>
  <separator name="miscellaneous" >
   <i type="int" name="IDIOT">     3</i>
   <i type="int" name="ISPECIAL">     0</i>
   <i type="logical" name="LMUSIC"> F  </i>
   <v name="POMASS">    106.42000000     14.00100000     16.00000000</v>
   <v name="DARWINR">      0.00000000      0.00000000      0.00000000</v>
   <v name="DARWINV">      1.00000000      1.00000000      1.00000000</v>
   <i type="logical" name="LCORR"> T  </i>
  </separator>
  <i type="logical" name="GGA_COMPAT"> T  </i>
  <i type="logical" name="LBERRY"> F  </i>
  <i type="int" name="ICORELEVEL">     0</i>
  <i type="logical" name="LDAU"> F  </i>
  <i type="int" name="I_CONSTRAINED_M">     0</i>
  <separator name="electronic exchange-correlation" >
   <i type="string" name="GGA">--</i>
   <i type="int" name="VOSKOWN">     0</i>
   <i type="logical" name="LHFCALC"> F  </i>
   <i type="string" name="PRECFOCK"></i>
   <i type="logical" name="LSYMGRAD"> F  </i>
   <i type="logical" name="LHFONE"> F  </i>
   <i type="logical" name="LRHFCALC"> F  </i>
   <i type="logical" name="LTHOMAS"> F  </i>
   <i type="logical" name="LMODELHF"> F  </i>
   <i name="ENCUT4O">     -1.00000000</i>
   <i type="int" name="EXXOEP">     0</i>
   <i type="int" name="FOURORBIT">     0</i>
   <i name="AEXX">      0.00000000</i>
   <i name="HFALPHA">      0.00000000</i>
   <i name="MCALPHA">      0.00000000</i>
   <i name="ALDAX">      1.00000000</i>
   <i name="AGGAX">      1.00000000</i>
   <i name="ALDAC">      1.00000000</i>
   <i name="AGGAC">      1.00000000</i>
   <i type="int" name="NKREDX">     1</i>
   <i type="int" name="NKREDY">     1</i>
   <i type="int" name="NKREDZ">     1</i>
   <i type="logical" name="SHIFTRED"> F  </i>
   <i type="logical" name="ODDONLY"> F  </i>
   <i type="logical" name="EVENONLY"> F  </i>
   <i type="int" name="LMAXFOCK">     0</i>
   <i type="int" name="NMAXFOCKAE">     0</i>
   <i type="logical" name="LFOCKAEDFT"> F  </i>
   <i name="HFSCREEN">      0.00000000</i>
   <i name="HFSCREENC">      0.00000000</i>
   <i type="int" name="NBANDSGWLOW">     0</i>
  </separator>
  <separator name="vdW DFT" >
   <i type="logical" name="LUSE_VDW"> F  </i>
   <i name="Zab_VDW">     -0.84910000</i>
   <i name="PARAM1">      0.12340000</i>
   <i name="PARAM2">      1.00000000</i>
   <i name="PARAM3">      0.00000000</i>
  </separator>
  <separator name="model GW" >
   <i type="int" name="MODEL_GW">     0</i>
   <i name="MODEL_EPS0">     21.02380717</i>
   <i name="MODEL_ALPHA">      1.00000000</i>
  </separator>
  <separator name="linear response parameters" >
   <i type="logical" name="LEPSILON"> F  </i>
   <i type="logical" name="LRPA"> F  </i>
   <i type="logical" name="LNABLA"> F  </i>
   <i type="logical" name="LVEL"> F  </i>
   <i type="int" name="KINTER">     0</i>
   <i name="CSHIFT">      0.10000000</i>
   <i name="OMEGAMAX">     -1.00000000</i>
   <i name="DEG_THRESHOLD">      0.00200000</i>
   <i name="RTIME">     -0.10000000</i>
   <i name="WPLASMAI">      0.00000000</i>
   <v name="DFIELD">      0.00000000      0.00000000      0.00000000</v>
   <v name="WPLASMA">      0.00000000      0.00000000      0.00000000      0.00000000      0.00000000      0.00000000      0.00000000      0.00000000      0.00000000</v>
  </separator>
  <separator name="orbital magnetization" >
   <i type="logical" name="NUCIND"> F  </i>
   <v name="MAGPOS">      0.00000000      0.00000000      0.00000000</v>
   <i type="logical" name="LNICSALL"> T  </i>
   <i type="logical" name="ORBITALMAG"> F  </i>
   <i type="logical" name="LMAGBLOCH"> F  </i>
   <i type="logical" name="LCHIMAG"> F  </i>
   <i type="logical" name="LGAUGE"> T  </i>
   <i type="int" name="MAGATOM">     0</i>
   <v name="MAGDIPOL">      0.00000000      0.00000000      0.00000000</v>
   <v name="AVECCONST">      0.00000000      0.00000000      0.00000000</v>
  </separator>
  <separator name="response functions" >
   <i type="logical" name="LADDER"> F  </i>
   <i type="logical" name="LRPAFORCE"> F  </i>
   <i type="logical" name="LFXC"> F  </i>
   <i type="logical" name="LHARTREE"> T  </i>
   <i type="int" name="IBSE">     0</i>
   <v type="int" name="KPOINT">    -1     0     0     0</v>
   <i type="logical" name="LTCTE"> F  </i>
   <i type="logical" name="LTETE"> F  </i>
   <i type="logical" name="LTRIPLET"> F  </i>
   <i type="logical" name="LFXCEPS"> F  </i>
   <i type="logical" name="LFXHEG"> F  </i>
   <i type="int" name="NATURALO">     2</i>
   <i type="logical" name="L2ORDER"> F  </i>
   <i type="logical" name="LMP2LT"> F  </i>
   <i type="logical" name="LUSEW"> F  </i>
   <i name="ENCUTGW">     -2.00000000</i>
   <i name="ENCUTGWSOFT">     -2.00000000</i>
   <i name="ENCUTLF">     -1.00000000</i>
   <i type="int" name="LMAXMP2">    -1</i>
   <i name="SCISSOR">      0.00000000</i>
   <i type="int" name="NOMEGA">     0</i>
   <i type="int" name="NOMEGAR">     0</i>
   <i type="int" name="NBANDSGW">    -1</i>
   <i type="int" name="NBANDSO">    -1</i>
   <i type="int" name="NBANDSV">    -1</i>
   <i type="int" name="NELM">     1</i>
   <i type="int" name="NELMHF">     1</i>
   <i type="int" name="DIM">     3</i>
   <i type="int" name="ANTIRES">     0</i>
   <i name="OMEGAMAX">    -30.00000000</i>
   <i name="OMEGAMIN">    -30.00000000</i>
   <i name="OMEGATL">   -200.00000000</i>
   <i type="int" name="OMEGAGRID">   140</i>
   <i name="CSHIFT">     -0.10000000</i>
   <i type="logical" name="SELFENERGY"> F  </i>
   <i type="logical" name="LSPECTRAL"> F  </i>
   <i type="logical" name="LSPECTRALGW"> F  </i>
   <i type="logical" name="LSINGLES"> F  </i>
   <i type="logical" name="LFERMIGW"> F  </i>
   <i type="logical" name="ODDONLYGW"> F  </i>
   <i type="logical" name="EVENONLYGW"> F  </i>
   <i type="int" name="NKREDLFX">     1</i>
   <i type="int" name="NKREDLFY">     1</i>
   <i type="int" name="NKREDLFZ">     1</i>
   <i type="int" name="MAXMEM">  2800</i>
   <i type="int" name="TELESCOPE">     0</i>
   <i type="int" name="TAUPAR">     1</i>
   <i type="int" name="OMEGAPAR">    -1</i>
   <i name="LAMBDA">      1.00000000</i>
  </separator>
  <separator name="External order field" >
   <i name="OFIELD_KAPPA">      0.00000000</i>
   <v name="OFIELD_K">      0.00000000      0.00000000      0.00000000</v>
   <i name="OFIELD_Q6_NEAR">      0.00000000</i>
   <i name="OFIELD_Q6_FAR">      0.00000000</i>
   <i name="OFIELD_A">      0.00000000</i>
  </separator>
  <separator name="solvation model" >
   <i type="logical" name="LSOL"> F  </i>
  </separator>
 </parameters>
 <atominfo>
  <atoms>      67 </atoms>
  <types>       3 </types>
  <array name="atoms" >
   <dimension dim="1">ion</dimension>
   <field type="string">element</field>
   <field type="int">atomtype</field>
   <set>
    <rc><c>Pd</c><c>   1</c></rc>
    <rc><c>Pd</c><c>   1</c></rc>
    <rc><c>Pd</c><c>   1</c></rc>
    <rc><c>Pd</c><c>   1</c></rc>
    <rc><c>Pd</c><c>   1</c></rc>
    <rc><c>Pd</c><c>   1</c></rc>
    <rc><c>Pd</c><c>   1</c></rc>
    <rc><c>Pd</c><c>   1</c></rc>
    <rc><c>Pd</c><c>   1</c></rc>
    <rc><c>Pd</c><c>   1</c></rc>
    <rc><c>Pd</c><c>   1</c></rc>
    <rc><c>Pd</c><c>   1</c></rc>
    <rc><c>Pd</c><c>   1</c></rc>
    <rc><c>Pd</c><c>   1</c></rc>
    <rc><c>Pd</c><c>   1</c></rc>
    <rc><c>Pd</c><c>   1</c></rc>
    <rc><c>Pd</c><c>   1</c></rc>
    <rc><c>Pd</c><c>   1</c></rc>
    <rc><c>Pd</c><c>   1</c></rc>
    <rc><c>Pd</c><c>   1</c></rc>
    <rc><c>Pd</c><c>   1</c></rc>
    <rc><c>Pd</c><c>   1</c></rc>
    <rc><c>Pd</c><c>   1</c></rc>
    <rc><c>Pd</c><c>   1</c></rc>
    <rc><c>Pd</c><c>   1</c></rc>
    <rc><c>Pd</c><c>   1</c></rc>
    <rc><c>Pd</c><c>   1</c></rc>
    <rc><c>Pd</c><c>   1</c></rc>
    <rc><c>Pd</c><c>   1</c></rc>
    <rc><c>Pd</c><c>   1</c></rc>
    <rc><c>Pd</c><c>   1</c></rc>
    <rc><c>Pd</c><c>   1</c></rc>
    <rc><c>Pd</c><c>   1</c></rc>
    <rc><c>Pd</c><c>   1</c></rc>
    <rc><c>Pd</c><c>   1</c></rc>
    <rc><c>Pd</c><c>   1</c></rc>
    <rc><c>Pd</c><c>   1</c></rc>
    <rc><c>Pd</c><c>   1</c></rc>
    <rc><c>Pd</c><c>   1</c></rc>
    <rc><c>Pd</c><c>   1</c></rc>
    <rc><c>Pd</c><c>   1</c></rc>
    <rc><c>Pd</c><c>   1</c></rc>
    <rc><c>Pd</c><c>   1</c></rc>
    <rc><c>Pd</c><c>   1</c></rc>
    <rc><c>Pd</c><c>   1</c></rc>
    <rc><c>Pd</c><c>   1</c></rc>
    <rc><c>Pd</c><c>   1</c></rc>
    <rc><c>Pd</c><c>   1</c></rc>
    <rc><c>Pd</c><c>   1</c></rc>
    <rc><c>Pd</c><c>   1</c></rc>
    <rc><c>Pd</c><c>   1</c></rc>
    <rc><c>Pd</c><c>   1</c></rc>
    <rc><c>Pd</c><c>   1</c></rc>
    <rc><c>Pd</c><c>   1</c></rc>
    <rc><c>Pd</c><c>   1</c></rc>
    <rc><c>Pd</c><c>   1</c></rc>
    <rc><c>Pd</c><c>   1</c></rc>
    <rc><c>Pd</c><c>   1</c></rc>
    <rc><c>Pd</c><c>   1</c></rc>
    <rc><c>Pd</c><c>   1</c></rc>
    <rc><c>Pd</c><c>   1</c></rc>
    <rc><c>Pd</c><c>   1</c></rc>
    <rc><c>Pd</c><c>   1</c></rc>
    <rc><c>Pd</c><c>   1</c></rc>
    <rc><c>N </c><c>   2</c></rc>
    <rc><c>N </c><c>   2</c></rc>
    <rc><c>O </c><c>   3</c></rc>
   </set>
  </array>
  <array name="atomtypes" >
   <dimension dim="1">type</dimension>
   <field type="int">atomspertype</field>
   <field type="string">element</field>
   <field>mass</field>
   <field>valence</field>
   <field type="string">pseudopotential</field>
   <set>
    <rc><c>  64</c><c>Pd</c><c>    106.42000000</c><c>     10.00000000</c><c>  PAW_PBE Pd 04Jan2005                  </c></rc>
    <rc><c>   2</c><c>N </c><c>     14.00100000</c><c>      5.00000000</c><c>  PAW_PBE N 08Apr2002                   </c></rc>
    <rc><c>   1</c><c>O </c><c>     16.00000000</c><c>      6.00000000</c><c>  PAW_PBE O 08Apr2002                   </c></rc>
   </set>
  </array>
 </atominfo>
 <structure name="initialpos" >
  <crystal>
   <varray name="basis" >
    <v>      11.14491190       0.00000000       0.00000000 </v>
    <v>       5.57245595       9.65177683       0.00000000 </v>
    <v>       0.00000000       0.00000000      21.82483685 </v>
   </varray>
   <i name="volume">   2347.65846769 </i>
   <varray name="rec_basis" >
    <v>       0.08972704      -0.05180393       0.00000000 </v>
    <v>       0.00000000       0.10360787       0.00000000 </v>
    <v>       0.00000000       0.00000000       0.04581936 </v>
   </varray>
  </crystal>
  <varray name="positions" >
   <v>       0.00000000       0.00000000       0.34364518 </v>
   <v>       0.25000000       0.00000000       0.34364518 </v>
   <v>       0.50000000       0.00000000       0.34364518 </v>
   <v>       0.75000000       0.00000000       0.34364518 </v>
   <v>       0.00000000       0.25000000       0.34364518 </v>
   <v>       0.25000000       0.25000000       0.34364518 </v>
   <v>       0.50000000       0.25000000       0.34364518 </v>
   <v>       0.75000000       0.25000000       0.34364518 </v>
   <v>       0.00000000       0.50000000       0.34364518 </v>
   <v>       0.25000000       0.50000000       0.34364518 </v>
   <v>       0.50000000       0.50000000       0.34364518 </v>
   <v>       0.75000000       0.50000000       0.34364518 </v>
   <v>       0.00000000       0.75000000       0.34364518 </v>
   <v>       0.25000000       0.75000000       0.34364518 </v>
   <v>       0.50000000       0.75000000       0.34364518 </v>
   <v>       0.75000000       0.75000000       0.34364518 </v>
   <v>       0.08333333       0.08333333       0.44788173 </v>
   <v>       0.33333333       0.08333333       0.44788173 </v>
   <v>       0.58333333       0.08333333       0.44788173 </v>
   <v>       0.83333333       0.08333333       0.44788173 </v>
   <v>       0.08333333       0.33333333       0.44788173 </v>
   <v>       0.33333333       0.33333333       0.44788173 </v>
   <v>       0.58333333       0.33333333       0.44788173 </v>
   <v>       0.83333333       0.33333333       0.44788173 </v>
   <v>       0.08333333       0.58333333       0.44788173 </v>
   <v>       0.33333333       0.58333333       0.44788173 </v>
   <v>       0.58333333       0.58333333       0.44788173 </v>
   <v>       0.83333333       0.58333333       0.44788173 </v>
   <v>       0.08333333       0.83333333       0.44788173 </v>
   <v>       0.33333333       0.83333333       0.44788173 </v>
   <v>       0.58333333       0.83333333       0.44788173 </v>
   <v>       0.83333333       0.83333333       0.44788173 </v>
   <v>       0.91666667       0.16666667       0.55312823 </v>
   <v>       0.16666667       0.16666667       0.55312823 </v>
   <v>       0.41666667       0.16666667       0.55312823 </v>
   <v>       0.66666667       0.16666667       0.55312823 </v>
   <v>       0.91666667       0.41666667       0.55312823 </v>
   <v>       0.16666667       0.41666667       0.55312823 </v>
   <v>       0.41666667       0.41666667       0.55312823 </v>
   <v>       0.66666667       0.41666667       0.55312823 </v>
   <v>       0.91666667       0.66666667       0.55312823 </v>
   <v>       0.16666667       0.66666667       0.55312823 </v>
   <v>       0.41666667       0.66666667       0.55312823 </v>
   <v>       0.66666667       0.66666667       0.55312823 </v>
   <v>       0.91666667       0.91666667       0.55312823 </v>
   <v>       0.16666667       0.91666667       0.55312823 </v>
   <v>       0.41666667       0.91666667       0.55312823 </v>
   <v>       0.66666667       0.91666667       0.55312823 </v>
   <v>       0.00000000       0.00000000       0.65939211 </v>
   <v>       0.25000000       0.00000000       0.65939211 </v>
   <v>       0.50000000       0.00000000       0.65939211 </v>
   <v>       0.75000000       0.00000000       0.65939211 </v>
   <v>       0.00000000       0.25000000       0.65939211 </v>
   <v>       0.25000000       0.25000000       0.65939211 </v>
   <v>       0.50000000       0.25000000       0.65939211 </v>
   <v>       0.75000000       0.25000000       0.65939211 </v>
   <v>       0.00000000       0.50000000       0.65939211 </v>
   <v>       0.25000000       0.50000000       0.65939211 </v>
   <v>       0.50000000       0.50000000       0.65939211 </v>
   <v>       0.75000000       0.50000000       0.65939211 </v>
   <v>       0.00000000       0.75000000       0.65939211 </v>
   <v>       0.25000000       0.75000000       0.65939211 </v>
   <v>       0.50000000       0.75000000       0.65939211 </v>
   <v>       0.75000000       0.75000000       0.65939211 </v>
   <v>       0.24372665       0.00887062       0.75227735 </v>
   <v>       0.22051012       0.02428829       0.80280027 </v>
   <v>       0.91803388       0.15679248       0.71556713 </v>
  </varray>
  <varray name="selective"  type="logical" >
   <v type="logical" >  F  F  F </v>
   <v type="logical" >  F  F  F </v>
   <v type="logical" >  F  F  F </v>
   <v type="logical" >  F  F  F </v>
   <v type="logical" >  F  F  F </v>
   <v type="logical" >  F  F  F </v>
   <v type="logical" >  F  F  F </v>
   <v type="logical" >  F  F  F </v>
   <v type="logical" >  F  F  F </v>
   <v type="logical" >  F  F  F </v>
   <v type="logical" >  F  F  F </v>
   <v type="logical" >  F  F  F </v>
   <v type="logical" >  F  F  F </v>
   <v type="logical" >  F  F  F </v>
   <v type="logical" >  F  F  F </v>
   <v type="logical" >  F  F  F </v>
   <v type="logical" >  F  F  F </v>
   <v type="logical" >  F  F  F </v>
   <v type="logical" >  F  F  F </v>
   <v type="logical" >  F  F  F </v>
   <v type="logical" >  F  F  F </v>
   <v type="logical" >  F  F  F </v>
   <v type="logical" >  F  F  F </v>
   <v type="logical" >  F  F  F </v>
   <v type="logical" >  F  F  F </v>
   <v type="logical" >  F  F  F </v>
   <v type="logical" >  F  F  F </v>
   <v type="logical" >  F  F  F </v>
   <v type="logical" >  F  F  F </v>
   <v type="logical" >  F  F  F </v>
   <v type="logical" >  F  F  F </v>
   <v type="logical" >  F  F  F </v>
   <v type="logical" >  F  F  F </v>
   <v type="logical" >  F  F  F </v>
   <v type="logical" >  F  F  F </v>
   <v type="logical" >  F  F  F </v>
   <v type="logical" >  F  F  F </v>
   <v type="logical" >  F  F  F </v>
   <v type="logical" >  F  F  F </v>
   <v type="logical" >  F  F  F </v>
   <v type="logical" >  F  F  F </v>
   <v type="logical" >  F  F  F </v>
   <v type="logical" >  F  F  F </v>
   <v type="logical" >  F  F  F </v>
   <v type="logical" >  F  F  F </v>
   <v type="logical" >  F  F  F </v>
   <v type="logical" >  F  F  F </v>
   <v type="logical" >  F  F  F </v>
   <v type="logical" >  F  F  F </v>
   <v type="logical" >  F  F  F </v>
   <v type="logical" >  F  F  F </v>
   <v type="logical" >  F  F  F </v>
   <v type="logical" >  F  F  F </v>
   <v type="logical" >  F  F  F </v>
   <v type="logical" >  F  F  F </v>
   <v type="logical" >  F  F  F </v>
   <v type="logical" >  F  F  F </v>
   <v type="logical" >  F  F  F </v>
   <v type="logical" >  F  F  F </v>
   <v type="logical" >  F  F  F </v>
   <v type="logical" >  F  F  F </v>
   <v type="logical" >  F  F  F </v>
   <v type="logical" >  F  F  F </v>
   <v type="logical" >  F  F  F </v>
   <v type="logical" >  T  T  T </v>
   <v type="logical" >  T  T  T </v>
   <v type="logical" >  T  T  T </v>
  </varray>
  <nose>
   <v>      -3.00000000       0.00000000       0.00010000       0.00010000 </v>
  </nose>
 </structure>
 <calculation>
  <scstep>
   <time name="dav">    5.80    5.81</time>
   <time name="total">    5.83    5.86</time>
   <energy>
    <i name="alphaZ">   1184.06556306 </i>
    <i name="ewald"> 165109.67962105 </i>
    <i name="hartreedc">-220347.07830426 </i>
    <i name="XCdc">  -1822.65352596 </i>
    <i name="pawpsdc">  52387.66707066 </i>
    <i name="pawaedc"> -48409.62114609 </i>
    <i name="eentropy">     -0.01848945 </i>
    <i name="bandstr">   2929.63163499 </i>
    <i name="atom">  52784.82232594 </i>
    <i name="e_fr_energy">   3816.49474993 </i>
    <i name="e_wo_entrp">   3816.51323938 </i>
    <i name="e_0_energy">   3816.50091308 </i>
   </energy>
  </scstep>
  <scstep>
   <time name="dav">    6.19    6.19</time>
   <time name="total">    6.19    6.19</time>
   <energy>
    <i name="e_fr_energy">   -124.95151626 </i>
    <i name="e_wo_entrp">   -124.99429444 </i>
    <i name="e_0_energy">   -124.96577565 </i>
   </energy>
  </scstep>
  <scstep>
   <time name="dav">    6.24    6.24</time>
   <time name="total">    6.24    6.24</time>
   <energy>
    <i name="e_fr_energy">   -348.53611564 </i>
    <i name="e_wo_entrp">   -348.46282321 </i>
    <i name="e_0_energy">   -348.51168483 </i>
   </energy>
  </scstep>
  <scstep>
   <time name="dav">    6.46    6.46</time>
   <time name="total">    6.46    6.46</time>
   <energy>
    <i name="e_fr_energy">   -356.38811399 </i>
    <i name="e_wo_entrp">   -356.28964853 </i>
    <i name="e_0_energy">   -356.35529217 </i>
   </energy>
  </scstep>
  <scstep>
   <time name="dav">    7.42    7.48</time>
   <time name="total">    7.52    7.58</time>
   <energy>
    <i name="e_fr_energy">   -356.64258808 </i>
    <i name="e_wo_entrp">   -356.54345183 </i>
    <i name="e_0_energy">   -356.60954266 </i>
   </energy>
  </scstep>
  <scstep>
   <time name="dav">    5.95    5.95</time>
   <time name="total">    6.08    6.08</time>
   <energy>
    <i name="e_fr_energy">   -347.00533018 </i>
    <i name="e_wo_entrp">   -346.71394089 </i>
    <i name="e_0_energy">   -346.90820042 </i>
   </energy>
  </scstep>
  <scstep>
   <time name="dav">    6.42    6.42</time>
   <time name="total">    6.54    6.54</time>
   <energy>
    <i name="e_fr_energy">   -421.64867197 </i>
    <i name="e_wo_entrp">   -421.76335807 </i>
    <i name="e_0_energy">   -421.68690067 </i>
   </energy>
  </scstep>
  <scstep>
   <time name="dav">    6.19    6.19</time>
   <time name="total">    6.31    6.31</time>
   <energy>
    <i name="e_fr_energy">   -361.74117466 </i>
    <i name="e_wo_entrp">   -361.68811307 </i>
    <i name="e_0_energy">   -361.72348747 </i>
   </energy>
  </scstep>
  <scstep>
   <time name="dav">    5.99    5.99</time>
   <time name="total">    6.11    6.12</time>
   <energy>
    <i name="e_fr_energy">   -345.00162277 </i>
    <i name="e_wo_entrp">   -344.77437303 </i>
    <i name="e_0_energy">   -344.92587286 </i>
   </energy>
  </scstep>
  <scstep>
   <time name="dav">    5.87    5.86</time>
   <time name="total">    5.99    5.99</time>
   <energy>
    <i name="e_fr_energy">   -342.73474958 </i>
    <i name="e_wo_entrp">   -342.45468123 </i>
    <i name="e_0_energy">   -342.64139346 </i>
   </energy>
  </scstep>
  <scstep>
   <time name="dav">    5.90    5.90</time>
   <time name="total">    6.03    6.03</time>
   <energy>
    <i name="e_fr_energy">   -340.74305122 </i>
    <i name="e_wo_entrp">   -340.55923952 </i>
    <i name="e_0_energy">   -340.68178065 </i>
   </energy>
  </scstep>
  <scstep>
   <time name="dav">    5.89    5.89</time>
   <time name="total">    6.02    6.02</time>
   <energy>
    <i name="e_fr_energy">   -339.70097768 </i>
    <i name="e_wo_entrp">   -339.47148750 </i>
    <i name="e_0_energy">   -339.62448095 </i>
   </energy>
  </scstep>
  <scstep>
   <time name="dav">    5.86    5.86</time>
   <time name="total">    5.99    5.99</time>
   <energy>
    <i name="e_fr_energy">   -339.01638705 </i>
    <i name="e_wo_entrp">   -338.77075021 </i>
    <i name="e_0_energy">   -338.93450811 </i>
   </energy>
  </scstep>
  <scstep>
   <time name="dav">    5.85    5.85</time>
   <time name="total">    5.98    5.98</time>
   <energy>
    <i name="e_fr_energy">   -338.97432198 </i>
    <i name="e_wo_entrp">   -338.71196165 </i>
    <i name="e_0_energy">   -338.88686854 </i>
   </energy>
  </scstep>
  <scstep>
   <time name="dav">    5.89    5.89</time>
   <time name="total">    6.02    6.04</time>
   <energy>
    <i name="e_fr_energy">   -338.75456109 </i>
    <i name="e_wo_entrp">   -338.45736578 </i>
    <i name="e_0_energy">   -338.65549599 </i>
   </energy>
  </scstep>
  <scstep>
   <time name="dav">    5.83    5.83</time>
   <time name="total">    5.96    5.96</time>
   <energy>
    <i name="e_fr_energy">   -338.66586504 </i>
    <i name="e_wo_entrp">   -338.36900268 </i>
    <i name="e_0_energy">   -338.56691092 </i>
   </energy>
  </scstep>
  <scstep>
   <time name="dav">    5.86    5.86</time>
   <time name="total">    5.98    5.98</time>
   <energy>
    <i name="e_fr_energy">   -338.64935122 </i>
    <i name="e_wo_entrp">   -338.34331391 </i>
    <i name="e_0_energy">   -338.54733878 </i>
   </energy>
  </scstep>
  <scstep>
   <time name="dav">    5.86    5.86</time>
   <time name="total">    5.99    5.99</time>
   <energy>
    <i name="e_fr_energy">   -338.61205280 </i>
    <i name="e_wo_entrp">   -338.30343875 </i>
    <i name="e_0_energy">   -338.50918145 </i>
   </energy>
  </scstep>
  <scstep>
   <time name="dav">    5.95    5.95</time>
   <time name="total">    6.07    6.08</time>
   <energy>
    <i name="e_fr_energy">   -338.60413202 </i>
    <i name="e_wo_entrp">   -338.29389865 </i>
    <i name="e_0_energy">   -338.50072089 </i>
   </energy>
  </scstep>
  <scstep>
   <time name="dav">    5.91    5.90</time>
   <time name="total">    6.03    6.03</time>
   <energy>
    <i name="e_fr_energy">   -338.60019139 </i>
    <i name="e_wo_entrp">   -338.28918046 </i>
    <i name="e_0_energy">   -338.49652108 </i>
   </energy>
  </scstep>
  <scstep>
   <time name="dav">    5.92    5.92</time>
   <time name="total">    6.05    6.05</time>
   <energy>
    <i name="e_fr_energy">   -338.59484542 </i>
    <i name="e_wo_entrp">   -338.28402801 </i>
    <i name="e_0_energy">   -338.49123961 </i>
   </energy>
  </scstep>
  <scstep>
   <time name="dav">    5.94    5.94</time>
   <time name="total">    6.06    6.06</time>
   <energy>
    <i name="e_fr_energy">   -338.59315665 </i>
    <i name="e_wo_entrp">   -338.28227137 </i>
    <i name="e_0_energy">   -338.48952822 </i>
   </energy>
  </scstep>
  <scstep>
   <time name="dav">    5.98    5.98</time>
   <time name="total">    6.10    6.10</time>
   <energy>
    <i name="e_fr_energy">   -338.59286293 </i>
    <i name="e_wo_entrp">   -338.28126446 </i>
    <i name="e_0_energy">   -338.48899677 </i>
   </energy>
  </scstep>
  <scstep>
   <time name="dav">    6.81    6.98</time>
   <time name="total">    6.93    7.10</time>
   <energy>
    <i name="e_fr_energy">   -338.59224679 </i>
    <i name="e_wo_entrp">   -338.28053476 </i>
    <i name="e_0_energy">   -338.48834278 </i>
   </energy>
  </scstep>
  <scstep>
   <time name="dav">    5.89    5.89</time>
   <time name="total">    6.02    6.04</time>
   <energy>
    <i name="e_fr_energy">   -338.59215965 </i>
    <i name="e_wo_entrp">   -338.28083778 </i>
    <i name="e_0_energy">   -338.48838569 </i>
   </energy>
  </scstep>
  <scstep>
   <time name="dav">    5.85    5.85</time>
   <time name="total">    5.97    5.97</time>
   <energy>
    <i name="e_fr_energy">   -338.59224888 </i>
    <i name="e_wo_entrp">   -338.28086543 </i>
    <i name="e_0_energy">   -338.48845440 </i>
   </energy>
  </scstep>
  <scstep>
   <time name="dav">    5.79    5.79</time>
   <time name="total">    5.92    5.92</time>
   <energy>
    <i name="e_fr_energy">   -338.59240614 </i>
    <i name="e_wo_entrp">   -338.28075544 </i>
    <i name="e_0_energy">   -338.48852258 </i>
   </energy>
  </scstep>
  <scstep>
   <time name="dav">    5.81    5.81</time>
   <time name="total">    5.93    5.93</time>
   <energy>
    <i name="e_fr_energy">   -338.59251893 </i>
    <i name="e_wo_entrp">   -338.28067300 </i>
    <i name="e_0_energy">   -338.48857029 </i>
   </energy>
  </scstep>
  <scstep>
   <time name="dav">    5.83    5.83</time>
   <time name="total">    5.96    5.97</time>
   <energy>
    <i name="e_fr_energy">   -338.59272108 </i>
    <i name="e_wo_entrp">   -338.28064312 </i>
    <i name="e_0_energy">   -338.48869510 </i>
   </energy>
  </scstep>
  <scstep>
   <time name="dav">    5.77    5.77</time>
   <time name="total">    5.90    5.90</time>
   <energy>
    <i name="e_fr_energy">   -338.59299527 </i>
    <i name="e_wo_entrp">   -338.28086542 </i>
    <i name="e_0_energy">   -338.48895199 </i>
   </energy>
  </scstep>
  <scstep>
   <time name="dav">    5.77    5.77</time>
   <time name="total">    5.90    5.90</time>
   <energy>
    <i name="e_fr_energy">   -338.59331286 </i>
    <i name="e_wo_entrp">   -338.28126464 </i>
    <i name="e_0_energy">   -338.48929679 </i>
   </energy>
  </scstep>
  <scstep>
   <time name="dav">    5.84    5.84</time>
   <time name="total">    5.96    5.96</time>
   <energy>
    <i name="e_fr_energy">   -338.59376250 </i>
    <i name="e_wo_entrp">   -338.28188483 </i>
    <i name="e_0_energy">   -338.48980328 </i>
   </energy>
  </scstep>
  <scstep>
   <time name="dav">    5.96    5.96</time>
   <time name="total">    6.08    6.08</time>
   <energy>
    <i name="e_fr_energy">   -338.59395510 </i>
    <i name="e_wo_entrp">   -338.28214490 </i>
    <i name="e_0_energy">   -338.49001837 </i>
   </energy>
  </scstep>
  <scstep>
   <time name="dav">    5.85    5.85</time>
   <time name="total">    5.98    5.98</time>
   <energy>
    <i name="e_fr_energy">   -338.59413578 </i>
    <i name="e_wo_entrp">   -338.28220611 </i>
    <i name="e_0_energy">   -338.49015923 </i>
   </energy>
  </scstep>
  <scstep>
   <time name="dav">    5.86    5.86</time>
   <time name="total">    5.99    5.99</time>
   <energy>
    <i name="e_fr_energy">   -338.59442600 </i>
    <i name="e_wo_entrp">   -338.28236288 </i>
    <i name="e_0_energy">   -338.49040496 </i>
   </energy>
  </scstep>
  <scstep>
   <time name="dav">    5.90    5.90</time>
   <time name="total">    6.03    6.05</time>
   <energy>
    <i name="e_fr_energy">   -338.59458321 </i>
    <i name="e_wo_entrp">   -338.28257752 </i>
    <i name="e_0_energy">   -338.49058131 </i>
   </energy>
  </scstep>
  <scstep>
   <time name="dav">    5.97    5.97</time>
   <time name="total">    6.10    6.10</time>
   <energy>
    <i name="e_fr_energy">   -338.59474106 </i>
    <i name="e_wo_entrp">   -338.28284307 </i>
    <i name="e_0_energy">   -338.49077506 </i>
   </energy>
  </scstep>
  <scstep>
   <time name="dav">    5.88    5.88</time>
   <time name="total">    6.00    6.00</time>
   <energy>
    <i name="e_fr_energy">   -338.59489068 </i>
    <i name="e_wo_entrp">   -338.28298529 </i>
    <i name="e_0_energy">   -338.49092222 </i>
   </energy>
  </scstep>
  <scstep>
   <time name="dav">    5.85    5.85</time>
   <time name="total">    5.97    5.97</time>
   <energy>
    <i name="e_fr_energy">   -338.59512609 </i>
    <i name="e_wo_entrp">   -338.28318899 </i>
    <i name="e_0_energy">   -338.49114706 </i>
   </energy>
  </scstep>
  <scstep>
   <time name="dav">    6.07    6.07</time>
   <time name="total">    6.19    6.20</time>
   <energy>
    <i name="e_fr_energy">   -338.59522662 </i>
    <i name="e_wo_entrp">   -338.28327564 </i>
    <i name="e_0_energy">   -338.49124296 </i>
   </energy>
  </scstep>
  <scstep>
   <time name="dav">    5.82    5.82</time>
   <time name="total">    5.95    5.95</time>
   <energy>
    <i name="e_fr_energy">   -338.59537475 </i>
    <i name="e_wo_entrp">   -338.28343722 </i>
    <i name="e_0_energy">   -338.49139558 </i>
   </energy>
  </scstep>
  <scstep>
   <time name="dav">    5.93    5.93</time>
   <time name="total">    6.06    6.05</time>
   <energy>
    <i name="e_fr_energy">   -338.59542233 </i>
    <i name="e_wo_entrp">   -338.28349538 </i>
    <i name="e_0_energy">   -338.49144668 </i>
   </energy>
  </scstep>
  <scstep>
   <time name="dav">    5.05    5.05</time>
   <time name="total">    5.18    5.18</time>
   <energy>
    <i name="e_fr_energy">   -338.59545746 </i>
    <i name="e_wo_entrp">   -338.28353266 </i>
    <i name="e_0_energy">   -338.49148252 </i>
   </energy>
  </scstep>
  <scstep>
   <time name="dav">    5.38    5.45</time>
   <time name="total">    5.52    5.59</time>
   <energy>
    <i name="e_fr_energy">   -338.59547345 </i>
    <i name="e_wo_entrp">   -338.28355515 </i>
    <i name="e_0_energy">   -338.49150068 </i>
   </energy>
  </scstep>
  <scstep>
   <time name="dav">    5.05    5.11</time>
   <time name="total">    5.18    5.24</time>
   <energy>
    <i name="e_fr_energy">   -338.59548192 </i>
    <i name="e_wo_entrp">   -338.28356367 </i>
    <i name="e_0_energy">   -338.49150917 </i>
   </energy>
  </scstep>
  <scstep>
   <time name="dav">    4.34    4.34</time>
   <time name="total">    4.47    4.47</time>
   <energy>
    <i name="e_fr_energy">   -338.59548634 </i>
    <i name="e_wo_entrp">   -338.28356473 </i>
    <i name="e_0_energy">   -338.49151247 </i>
   </energy>
  </scstep>
  <scstep>
   <time name="dav">    4.12    4.12</time>
   <time name="total">    4.24    4.27</time>
   <energy>
    <i name="e_fr_energy">   -338.59548826 </i>
    <i name="e_wo_entrp">   -338.28356649 </i>
    <i name="e_0_energy">   -338.49151434 </i>
   </energy>
  </scstep>
  <scstep>
   <time name="dav">    4.17    4.17</time>
   <time name="total">    4.30    4.31</time>
   <energy>
    <i name="e_fr_energy">   -338.59548903 </i>
    <i name="e_wo_entrp">   -338.28356647 </i>
    <i name="e_0_energy">   -338.49151485 </i>
   </energy>
  </scstep>
  <scstep>
   <time name="dav">    4.03    4.03</time>
   <time name="total">    4.16    4.17</time>
   <energy>
    <i name="e_fr_energy">   -338.59548950 </i>
    <i name="e_wo_entrp">   -338.28356659 </i>
    <i name="e_0_energy">   -338.49151520 </i>
   </energy>
  </scstep>
  <scstep>
   <time name="dav">    4.10    4.10</time>
   <time name="total">    4.23    4.23</time>
   <energy>
    <i name="e_fr_energy">   -338.59548977 </i>
    <i name="e_wo_entrp">   -338.28356677 </i>
    <i name="e_0_energy">   -338.49151544 </i>
   </energy>
  </scstep>
  <scstep>
   <time name="dav">    4.09    4.09</time>
   <time name="total">    4.22    4.22</time>
   <energy>
    <i name="e_fr_energy">   -338.59548994 </i>
    <i name="e_wo_entrp">   -338.28356609 </i>
    <i name="e_0_energy">   -338.49151532 </i>
   </energy>
  </scstep>
  <scstep>
   <time name="dav">    4.02    4.02</time>
   <time name="total">    4.04    4.04</time>
   <energy>
    <i name="alphaZ">   1184.06556306 </i>
    <i name="ewald"> 165109.67962105 </i>
    <i name="hartreedc">-220379.67250402 </i>
    <i name="XCdc">  -1835.17030586 </i>
    <i name="pawpsdc">  61397.70573016 </i>
    <i name="pawaedc"> -57559.71943076 </i>
    <i name="eentropy">     -0.31192415 </i>
    <i name="bandstr">  -1039.99456543 </i>
    <i name="atom">  52784.82232594 </i>
    <i name="e_fr_energy">   -338.59549002 </i>
    <i name="e_wo_entrp">   -338.28356588 </i>
    <i name="e_0_energy">   -338.49151531 </i>
   </energy>
  </scstep>
  <structure>
   <crystal>
    <varray name="basis" >
     <v>      11.14491190       0.00000000       0.00000000 </v>
     <v>       5.57245595       9.65177683       0.00000000 </v>
     <v>       0.00000000       0.00000000      21.82483685 </v>
    </varray>
    <i name="volume">   2347.65846769 </i>
    <varray name="rec_basis" >
     <v>       0.08972704      -0.05180393       0.00000000 </v>
     <v>       0.00000000       0.10360787       0.00000000 </v>
     <v>       0.00000000       0.00000000       0.04581936 </v>
    </varray>
   </crystal>
   <varray name="positions" >
    <v>       0.00000000       0.00000000       0.34364518 </v>
    <v>       0.25000000       0.00000000       0.34364518 </v>
    <v>       0.50000000       0.00000000       0.34364518 </v>
    <v>       0.75000000       0.00000000       0.34364518 </v>
    <v>       0.00000000       0.25000000       0.34364518 </v>
    <v>       0.25000000       0.25000000       0.34364518 </v>
    <v>       0.50000000       0.25000000       0.34364518 </v>
    <v>       0.75000000       0.25000000       0.34364518 </v>
    <v>       0.00000000       0.50000000       0.34364518 </v>
    <v>       0.25000000       0.50000000       0.34364518 </v>
    <v>       0.50000000       0.50000000       0.34364518 </v>
    <v>       0.75000000       0.50000000       0.34364518 </v>
    <v>       0.00000000       0.75000000       0.34364518 </v>
    <v>       0.25000000       0.75000000       0.34364518 </v>
    <v>       0.50000000       0.75000000       0.34364518 </v>
    <v>       0.75000000       0.75000000       0.34364518 </v>
    <v>       0.08333333       0.08333333       0.44788173 </v>
    <v>       0.33333333       0.08333333       0.44788173 </v>
    <v>       0.58333333       0.08333333       0.44788173 </v>
    <v>       0.83333333       0.08333333       0.44788173 </v>
    <v>       0.08333333       0.33333333       0.44788173 </v>
    <v>       0.33333333       0.33333333       0.44788173 </v>
    <v>       0.58333333       0.33333333       0.44788173 </v>
    <v>       0.83333333       0.33333333       0.44788173 </v>
    <v>       0.08333333       0.58333333       0.44788173 </v>
    <v>       0.33333333       0.58333333       0.44788173 </v>
    <v>       0.58333333       0.58333333       0.44788173 </v>
    <v>       0.83333333       0.58333333       0.44788173 </v>
    <v>       0.08333333       0.83333333       0.44788173 </v>
    <v>       0.33333333       0.83333333       0.44788173 </v>
    <v>       0.58333333       0.83333333       0.44788173 </v>
    <v>       0.83333333       0.83333333       0.44788173 </v>
    <v>       0.91666667       0.16666667       0.55312823 </v>
    <v>       0.16666667       0.16666667       0.55312823 </v>
    <v>       0.41666667       0.16666667       0.55312823 </v>
    <v>       0.66666667       0.16666667       0.55312823 </v>
    <v>       0.91666667       0.41666667       0.55312823 </v>
    <v>       0.16666667       0.41666667       0.55312823 </v>
    <v>       0.41666667       0.41666667       0.55312823 </v>
    <v>       0.66666667       0.41666667       0.55312823 </v>
    <v>       0.91666667       0.66666667       0.55312823 </v>
    <v>       0.16666667       0.66666667       0.55312823 </v>
    <v>       0.41666667       0.66666667       0.55312823 </v>
    <v>       0.66666667       0.66666667       0.55312823 </v>
    <v>       0.91666667       0.91666667       0.55312823 </v>
    <v>       0.16666667       0.91666667       0.55312823 </v>
    <v>       0.41666667       0.91666667       0.55312823 </v>
    <v>       0.66666667       0.91666667       0.55312823 </v>
    <v>       0.00000000       0.00000000       0.65939211 </v>
    <v>       0.25000000       0.00000000       0.65939211 </v>
    <v>       0.50000000       0.00000000       0.65939211 </v>
    <v>       0.75000000       0.00000000       0.65939211 </v>
    <v>       0.00000000       0.25000000       0.65939211 </v>
    <v>       0.25000000       0.25000000       0.65939211 </v>
    <v>       0.50000000       0.25000000       0.65939211 </v>
    <v>       0.75000000       0.25000000       0.65939211 </v>
    <v>       0.00000000       0.50000000       0.65939211 </v>
    <v>       0.25000000       0.50000000       0.65939211 </v>
    <v>       0.50000000       0.50000000       0.65939211 </v>
    <v>       0.75000000       0.50000000       0.65939211 </v>
    <v>       0.00000000       0.75000000       0.65939211 </v>
    <v>       0.25000000       0.75000000       0.65939211 </v>
    <v>       0.50000000       0.75000000       0.65939211 </v>
    <v>       0.75000000       0.75000000       0.65939211 </v>
    <v>       0.24372665       0.00887062       0.75227735 </v>
    <v>       0.22051012       0.02428829       0.80280027 </v>
    <v>       0.91803388       0.15679248       0.71556713 </v>
   </varray>
  </structure>
  <varray name="forces" >
   <v>      -0.00337027       0.00508726      -0.00126355 </v>
   <v>       0.01028985      -0.00855134      -0.04734029 </v>
   <v>      -0.00153696      -0.01424334      -0.03595779 </v>
   <v>      -0.01083816      -0.01358265      -0.01681256 </v>
   <v>      -0.00113994       0.00112409      -0.00179490 </v>
   <v>       0.00417430       0.00265685      -0.00378880 </v>
   <v>      -0.00240639       0.00304639      -0.00627685 </v>
   <v>       0.00408796      -0.00378032      -0.00276001 </v>
   <v>       0.00591535       0.01976115      -0.03144285 </v>
   <v>      -0.00743683       0.00533617      -0.01338333 </v>
   <v>      -0.00559091       0.00006328      -0.00571146 </v>
   <v>       0.00404791       0.01900014      -0.02071605 </v>
   <v>      -0.01813489      -0.01603848      -0.03203871 </v>
   <v>       0.00081101      -0.00656497      -0.00180738 </v>
   <v>       0.01871418       0.00828664      -0.03738572 </v>
   <v>       0.00562606      -0.00607430      -0.05743670 </v>
   <v>       0.01681991      -0.01055142       0.20575911 </v>
   <v>      -0.01824575      -0.02662656       0.19140857 </v>
   <v>       0.01019220      -0.02655771       0.16072487 </v>
   <v>      -0.00733970      -0.00297967       0.17412462 </v>
   <v>      -0.00272155       0.02632461       0.17003907 </v>
   <v>      -0.00094026       0.02120395       0.18614647 </v>
   <v>      -0.00469149       0.00428244       0.21181246 </v>
   <v>      -0.00052035       0.00680940       0.17930014 </v>
   <v>       0.01130254      -0.00885155       0.18757816 </v>
   <v>      -0.01764767      -0.01194909       0.18067354 </v>
   <v>       0.03118238      -0.00051763       0.16098686 </v>
   <v>      -0.02233469       0.00053006       0.15713584 </v>
   <v>      -0.02121838      -0.01285740       0.17837771 </v>
   <v>       0.01180486       0.02926520       0.18327004 </v>
   <v>       0.02315334      -0.01384526       0.13850038 </v>
   <v>      -0.01369615       0.01490310       0.15193604 </v>
   <v>      -0.01154439       0.00830156      -0.47149650 </v>
   <v>       0.03453635      -0.01533655       0.04888819 </v>
   <v>       0.01136995       0.01962226       0.00691319 </v>
   <v>      -0.02835279       0.03793267       0.03982040 </v>
   <v>       0.04522466      -0.01363457       0.07085020 </v>
   <v>       0.01005634      -0.01241565      -0.02242861 </v>
   <v>      -0.00738832       0.00294558      -0.03887885 </v>
   <v>      -0.05267813      -0.01321069       0.07984001 </v>
   <v>       0.01224460      -0.01080761       0.01772773 </v>
   <v>       0.01398377       0.00115796      -0.02101151 </v>
   <v>      -0.00865905      -0.01987858       0.01411947 </v>
   <v>      -0.01599854       0.03516540      -0.02539132 </v>
   <v>       0.02440751      -0.02848582       0.06085973 </v>
   <v>       0.03654716      -0.00430717       0.10258349 </v>
   <v>      -0.01482595       0.00838704       0.00083072 </v>
   <v>      -0.03550521       0.00235420      -0.02169622 </v>
   <v>      -0.19264648      -0.70238225      -0.13783989 </v>
   <v>       0.24387904      -0.14039330       0.29635744 </v>
   <v>       0.22824027      -0.00470537      -0.25278455 </v>
   <v>      -0.25482842      -0.15238495      -0.25556065 </v>
   <v>      -0.05638728       0.24789650       0.27737590 </v>
   <v>       0.12608600       0.23187762      -0.27389383 </v>
   <v>      -0.04365386       0.02037605      -0.19882047 </v>
   <v>      -0.16979864       0.13255827       0.29066985 </v>
   <v>       0.01585395      -0.00262825      -0.19583455 </v>
   <v>       0.00434781      -0.00652213      -0.20796281 </v>
   <v>      -0.02008317       0.00992619      -0.20345396 </v>
   <v>       0.00846916       0.26204082      -0.25403104 </v>
   <v>       0.00106497      -0.03709126      -0.18768269 </v>
   <v>      -0.12680475      -0.20508514      -0.25912342 </v>
   <v>       0.10336121      -0.18969666      -0.24428057 </v>
   <v>       0.01507408      -0.00151481      -0.17452128 </v>
   <v>      -0.05324298       0.01142469       0.02504510 </v>
   <v>       0.07542116      -0.05278343      -0.00208343 </v>
   <v>       0.08391846       0.59718835      -0.38496220 </v>
  </varray>
  <varray name="stress" >
   <v>     -27.06050933      -0.10300233       0.15268230 </v>
   <v>      -0.10300219     -26.56585602       0.46315502 </v>
   <v>       0.15268227       0.46315502     -10.80686400 </v>
  </varray>
  <energy>
   <i name="e_fr_energy">   -338.59549002 </i>
   <i name="e_wo_entrp">   -338.49151531 </i>
   <i name="e_0_energy">     -0.31192415 </i>
  </energy>
  <time name="totalsc">  310.52  311.06</time>
 </calculation>
 <calculation>
  <scstep>
   <time name="dav">    5.74    5.74</time>
   <time name="total">    5.86    5.87</time>
   <energy>
    <i name="alphaZ">   1184.06556306 </i>
    <i name="ewald"> 165109.53278927 </i>
    <i name="hartreedc">-220379.55936234 </i>
    <i name="XCdc">  -1835.17192154 </i>
    <i name="pawpsdc">  61397.70345985 </i>
    <i name="pawaedc"> -57559.71714908 </i>
    <i name="eentropy">     -0.31193941 </i>
    <i name="bandstr">  -1039.95913470 </i>
    <i name="atom">  52784.82232594 </i>
    <i name="e_fr_energy">   -338.59536897 </i>
    <i name="e_wo_entrp">   -338.28342956 </i>
    <i name="e_0_energy">   -338.49138917 </i>
   </energy>
  </scstep>
  <scstep>
   <time name="dav">    5.81    5.81</time>
   <time name="total">    5.94    5.94</time>
   <energy>
    <i name="e_fr_energy">   -338.59537538 </i>
    <i name="e_wo_entrp">   -338.28348270 </i>
    <i name="e_0_energy">   -338.49141115 </i>
   </energy>
  </scstep>
  <scstep>
   <time name="dav">    6.26    6.26</time>
   <time name="total">    6.39    6.39</time>
   <energy>
    <i name="e_fr_energy">   -338.59540557 </i>
    <i name="e_wo_entrp">   -338.28317230 </i>
    <i name="e_0_energy">   -338.49132781 </i>
   </energy>
  </scstep>
  <scstep>
   <time name="dav">    6.21    6.21</time>
   <time name="total">    6.33    6.33</time>
   <energy>
    <i name="e_fr_energy">   -338.59538362 </i>
    <i name="e_wo_entrp">   -338.28352602 </i>
    <i name="e_0_energy">   -338.49143109 </i>
   </energy>
  </scstep>
  <scstep>
   <time name="dav">    6.17    6.17</time>
   <time name="total">    6.29    6.29</time>
   <energy>
    <i name="e_fr_energy">   -338.59537652 </i>
    <i name="e_wo_entrp">   -338.28343040 </i>
    <i name="e_0_energy">   -338.49139448 </i>
   </energy>
  </scstep>
  <scstep>
   <time name="dav">    5.97    5.97</time>
   <time name="total">    6.10    6.12</time>
   <energy>
    <i name="e_fr_energy">   -338.59537460 </i>
    <i name="e_wo_entrp">   -338.28346937 </i>
    <i name="e_0_energy">   -338.49140619 </i>
   </energy>
  </scstep>
  <scstep>
   <time name="dav">    5.90    5.90</time>
   <time name="total">    6.03    6.03</time>
   <energy>
    <i name="e_fr_energy">   -338.59537434 </i>
    <i name="e_wo_entrp">   -338.28340280 </i>
    <i name="e_0_energy">   -338.49138382 </i>
   </energy>
  </scstep>
  <scstep>
   <time name="dav">    5.10    5.10</time>
   <time name="total">    5.22    5.22</time>
   <energy>
    <i name="e_fr_energy">   -338.59537379 </i>
    <i name="e_wo_entrp">   -338.28344721 </i>
    <i name="e_0_energy">   -338.49139826 </i>
   </energy>
  </scstep>
  <scstep>
   <time name="dav">    4.01    4.01</time>
   <time name="total">    4.03    4.03</time>
   <energy>
    <i name="alphaZ">   1184.06556306 </i>
    <i name="ewald"> 165109.53278927 </i>
    <i name="hartreedc">-220379.51051311 </i>
    <i name="XCdc">  -1835.17281755 </i>
    <i name="pawpsdc">  61397.22517628 </i>
    <i name="pawaedc"> -57559.23752053 </i>
    <i name="eentropy">     -0.31193612 </i>
    <i name="bandstr">  -1040.00844098 </i>
    <i name="atom">  52784.82232594 </i>
    <i name="e_fr_energy">   -338.59537376 </i>
    <i name="e_wo_entrp">   -338.28343764 </i>
    <i name="e_0_energy">   -338.49139505 </i>
   </energy>
  </scstep>
  <structure>
   <crystal>
    <varray name="basis" >
     <v>      11.14491190       0.00000000       0.00000000 </v>
     <v>       5.57245595       9.65177683       0.00000000 </v>
     <v>       0.00000000       0.00000000      21.82483685 </v>
    </varray>
    <i name="volume">   2347.65846769 </i>
    <varray name="rec_basis" >
     <v>       0.08972704      -0.05180393       0.00000000 </v>
     <v>       0.00000000       0.10360787       0.00000000 </v>
     <v>       0.00000000       0.00000000       0.04581936 </v>
    </varray>
   </crystal>
   <varray name="positions" >
    <v>       0.00000000       0.00000000       0.34364518 </v>
    <v>       0.25000000       0.00000000       0.34364518 </v>
    <v>       0.50000000       0.00000000       0.34364518 </v>
    <v>       0.75000000       0.00000000       0.34364518 </v>
    <v>       0.00000000       0.25000000       0.34364518 </v>
    <v>       0.25000000       0.25000000       0.34364518 </v>
    <v>       0.50000000       0.25000000       0.34364518 </v>
    <v>       0.75000000       0.25000000       0.34364518 </v>
    <v>       0.00000000       0.50000000       0.34364518 </v>
    <v>       0.25000000       0.50000000       0.34364518 </v>
    <v>       0.50000000       0.50000000       0.34364518 </v>
    <v>       0.75000000       0.50000000       0.34364518 </v>
    <v>       0.00000000       0.75000000       0.34364518 </v>
    <v>       0.25000000       0.75000000       0.34364518 </v>
    <v>       0.50000000       0.75000000       0.34364518 </v>
    <v>       0.75000000       0.75000000       0.34364518 </v>
    <v>       0.08333333       0.08333333       0.44788173 </v>
    <v>       0.33333333       0.08333333       0.44788173 </v>
    <v>       0.58333333       0.08333333       0.44788173 </v>
    <v>       0.83333333       0.08333333       0.44788173 </v>
    <v>       0.08333333       0.33333333       0.44788173 </v>
    <v>       0.33333333       0.33333333       0.44788173 </v>
    <v>       0.58333333       0.33333333       0.44788173 </v>
    <v>       0.83333333       0.33333333       0.44788173 </v>
    <v>       0.08333333       0.58333333       0.44788173 </v>
    <v>       0.33333333       0.58333333       0.44788173 </v>
    <v>       0.58333333       0.58333333       0.44788173 </v>
    <v>       0.83333333       0.58333333       0.44788173 </v>
    <v>       0.08333333       0.83333333       0.44788173 </v>
    <v>       0.33333333       0.83333333       0.44788173 </v>
    <v>       0.58333333       0.83333333       0.44788173 </v>
    <v>       0.83333333       0.83333333       0.44788173 </v>
    <v>       0.91666667       0.16666667       0.55312823 </v>
    <v>       0.16666667       0.16666667       0.55312823 </v>
    <v>       0.41666667       0.16666667       0.55312823 </v>
    <v>       0.66666667       0.16666667       0.55312823 </v>
    <v>       0.91666667       0.41666667       0.55312823 </v>
    <v>       0.16666667       0.41666667       0.55312823 </v>
    <v>       0.41666667       0.41666667       0.55312823 </v>
    <v>       0.66666667       0.41666667       0.55312823 </v>
    <v>       0.91666667       0.66666667       0.55312823 </v>
    <v>       0.16666667       0.66666667       0.55312823 </v>
    <v>       0.41666667       0.66666667       0.55312823 </v>
    <v>       0.66666667       0.66666667       0.55312823 </v>
    <v>       0.91666667       0.91666667       0.55312823 </v>
    <v>       0.16666667       0.91666667       0.55312823 </v>
    <v>       0.41666667       0.91666667       0.55312823 </v>
    <v>       0.66666667       0.91666667       0.55312823 </v>
    <v>       0.00000000       0.00000000       0.65939211 </v>
    <v>       0.25000000       0.00000000       0.65939211 </v>
    <v>       0.50000000       0.00000000       0.65939211 </v>
    <v>       0.75000000       0.00000000       0.65939211 </v>
    <v>       0.00000000       0.25000000       0.65939211 </v>
    <v>       0.25000000       0.25000000       0.65939211 </v>
    <v>       0.50000000       0.25000000       0.65939211 </v>
    <v>       0.75000000       0.25000000       0.65939211 </v>
    <v>       0.00000000       0.50000000       0.65939211 </v>
    <v>       0.25000000       0.50000000       0.65939211 </v>
    <v>       0.50000000       0.50000000       0.65939211 </v>
    <v>       0.75000000       0.50000000       0.65939211 </v>
    <v>       0.00000000       0.75000000       0.65939211 </v>
    <v>       0.25000000       0.75000000       0.65939211 </v>
    <v>       0.50000000       0.75000000       0.65939211 </v>
    <v>       0.75000000       0.75000000       0.65939211 </v>
    <v>       0.24390611       0.00887062       0.75227735 </v>
    <v>       0.22051012       0.02428829       0.80280027 </v>
    <v>       0.91803388       0.15679248       0.71556713 </v>
   </varray>
  </structure>
  <varray name="forces" >
   <v>      -0.00340024       0.00509532      -0.00125361 </v>
   <v>       0.01028192      -0.00855526      -0.04738377 </v>
   <v>      -0.00153837      -0.01425885      -0.03598418 </v>
   <v>      -0.01081065      -0.01358009      -0.01678485 </v>
   <v>      -0.00114555       0.00114100      -0.00186390 </v>
   <v>       0.00416415       0.00263647      -0.00382270 </v>
   <v>      -0.00237716       0.00305107      -0.00630177 </v>
   <v>       0.00409359      -0.00379663      -0.00273464 </v>
   <v>       0.00591034       0.01976852      -0.03144580 </v>
   <v>      -0.00743475       0.00535701      -0.01339620 </v>
   <v>      -0.00559549       0.00005677      -0.00569538 </v>
   <v>       0.00404185       0.01898451      -0.02070446 </v>
   <v>      -0.01815054      -0.01603434      -0.03204994 </v>
   <v>       0.00082517      -0.00656480      -0.00176622 </v>
   <v>       0.01872861       0.00829652      -0.03740731 </v>
   <v>       0.00559372      -0.00605044      -0.05738323 </v>
   <v>       0.01684870      -0.01055402       0.20573612 </v>
   <v>      -0.01821344      -0.02661630       0.19144504 </v>
   <v>       0.01019892      -0.02657095       0.16073934 </v>
   <v>      -0.00733552      -0.00297184       0.17410870 </v>
   <v>      -0.00274103       0.02633564       0.17002766 </v>
   <v>      -0.00094019       0.02121999       0.18612062 </v>
   <v>      -0.00469953       0.00428698       0.21180677 </v>
   <v>      -0.00052537       0.00680499       0.17930937 </v>
   <v>       0.01131646      -0.00883795       0.18759188 </v>
   <v>      -0.01764302      -0.01195797       0.18064290 </v>
   <v>       0.03118044      -0.00051770       0.16102222 </v>
   <v>      -0.02232029       0.00051942       0.15713701 </v>
   <v>      -0.02122142      -0.01284584       0.17853960 </v>
   <v>       0.01181959       0.02925312       0.18326056 </v>
   <v>       0.02318890      -0.01386548       0.13838927 </v>
   <v>      -0.01366805       0.01489435       0.15194394 </v>
   <v>      -0.01155722       0.00829490      -0.47146869 </v>
   <v>       0.03444293      -0.01530617       0.04881651 </v>
   <v>       0.01135501       0.01961118       0.00688670 </v>
   <v>      -0.02836461       0.03792146       0.03981482 </v>
   <v>       0.04522419      -0.01362033       0.07084950 </v>
   <v>       0.01005110      -0.01245934      -0.02239429 </v>
   <v>      -0.00738313       0.00294385      -0.03887333 </v>
   <v>      -0.05267257      -0.01319563       0.07985511 </v>
   <v>       0.01223592      -0.01079375       0.01770195 </v>
   <v>       0.01396604       0.00114117      -0.02101460 </v>
   <v>      -0.00866471      -0.01986792       0.01413186 </v>
   <v>      -0.01602080       0.03520480      -0.02539501 </v>
   <v>       0.02436680      -0.02847761       0.06085684 </v>
   <v>       0.03694186      -0.00404225       0.10319510 </v>
   <v>      -0.01442194       0.00808496       0.00000641 </v>
   <v>      -0.03558410       0.00236630      -0.02167032 </v>
   <v>      -0.19213523      -0.70227420      -0.13746220 </v>
   <v>       0.24435498      -0.14037922       0.29634424 </v>
   <v>       0.22852792      -0.00473673      -0.25290146 </v>
   <v>      -0.25492075      -0.15237372      -0.25559089 </v>
   <v>      -0.05635708       0.24753166       0.27753582 </v>
   <v>       0.12610163       0.23210340      -0.27389467 </v>
   <v>      -0.04360696       0.02040446      -0.19882888 </v>
   <v>      -0.16979963       0.13255092       0.29069410 </v>
   <v>       0.01584375      -0.00263088      -0.19581546 </v>
   <v>       0.00433024      -0.00656666      -0.20792619 </v>
   <v>      -0.02007788       0.00994203      -0.20342634 </v>
   <v>       0.00845111       0.26207554      -0.25402556 </v>
   <v>       0.00108393      -0.03706547      -0.18767645 </v>
   <v>      -0.12681164      -0.20494457      -0.25901656 </v>
   <v>       0.10330741      -0.18982319      -0.24437177 </v>
   <v>       0.01511564      -0.00153589      -0.17454395 </v>
   <v>      -0.06319299       0.01694005       0.06466405 </v>
   <v>       0.08331480      -0.05814594      -0.04187552 </v>
   <v>       0.08412427       0.59699956      -0.38502392 </v>
  </varray>
  <varray name="stress" >
   <v>     -27.06129652      -0.10255094       0.15460474 </v>
   <v>      -0.10255079     -26.56598079       0.45926606 </v>
   <v>       0.15460475       0.45926602     -10.83751929 </v>
  </varray>
  <energy>
   <i name="e_fr_energy">   -338.59537376 </i>
   <i name="e_wo_entrp">   -338.49139505 </i>
   <i name="e_0_energy">     -0.31193612 </i>
  </energy>
  <time name="totalsc">   60.74   60.80</time>
 </calculation>
 <calculation>
  <scstep>
   <time name="dav">    5.74    5.74</time>
   <time name="total">    5.86    5.88</time>
   <energy>
    <i name="alphaZ">   1184.06556306 </i>
    <i name="ewald"> 165109.82547978 </i>
    <i name="hartreedc">-220379.73407226 </i>
    <i name="XCdc">  -1835.16959252 </i>
    <i name="pawpsdc">  61397.22035224 </i>
    <i name="pawaedc"> -57559.23269334 </i>
    <i name="eentropy">     -0.31190268 </i>
    <i name="bandstr">  -1040.08102802 </i>
    <i name="atom">  52784.82232594 </i>
    <i name="e_fr_energy">   -338.59556781 </i>
    <i name="e_wo_entrp">   -338.28366513 </i>
    <i name="e_0_energy">   -338.49160025 </i>
   </energy>
  </scstep>
  <scstep>
   <time name="dav">    5.78    5.78</time>
   <time name="total">    5.91    5.91</time>
   <energy>
    <i name="e_fr_energy">   -338.59559470 </i>
    <i name="e_wo_entrp">   -338.28360136 </i>
    <i name="e_0_energy">   -338.49159692 </i>
   </energy>
  </scstep>
  <scstep>
   <time name="dav">    7.06    7.23</time>
   <time name="total">    7.19    7.36</time>
   <energy>
    <i name="e_fr_energy">   -338.59569826 </i>
    <i name="e_wo_entrp">   -338.28433023 </i>
    <i name="e_0_energy">   -338.49190892 </i>
   </energy>
  </scstep>
  <scstep>
   <time name="dav">    6.18    6.18</time>
   <time name="total">    6.31    6.31</time>
   <energy>
    <i name="e_fr_energy">   -338.59563995 </i>
    <i name="e_wo_entrp">   -338.28351151 </i>
    <i name="e_0_energy">   -338.49159713 </i>
   </energy>
  </scstep>
  <scstep>
   <time name="dav">    6.21    6.21</time>
   <time name="total">    6.34    6.34</time>
   <energy>
    <i name="e_fr_energy">   -338.59559799 </i>
    <i name="e_wo_entrp">   -338.28371254 </i>
    <i name="e_0_energy">   -338.49163617 </i>
   </energy>
  </scstep>
  <scstep>
   <time name="dav">    5.83    5.83</time>
   <time name="total">    5.95    5.97</time>
   <energy>
    <i name="e_fr_energy">   -338.59558988 </i>
    <i name="e_wo_entrp">   -338.28364635 </i>
    <i name="e_0_energy">   -338.49160871 </i>
   </energy>
  </scstep>
  <scstep>
   <time name="dav">    5.83    5.83</time>
   <time name="total">    5.96    5.96</time>
   <energy>
    <i name="e_fr_energy">   -338.59558844 </i>
    <i name="e_wo_entrp">   -338.28372508 </i>
    <i name="e_0_energy">   -338.49163399 </i>
   </energy>
  </scstep>
  <scstep>
   <time name="dav">    5.80    5.80</time>
   <time name="total">    5.93    5.93</time>
   <energy>
    <i name="e_fr_energy">   -338.59558715 </i>
    <i name="e_wo_entrp">   -338.28365951 </i>
    <i name="e_0_energy">   -338.49161127 </i>
   </energy>
  </scstep>
  <scstep>
   <time name="dav">    5.09    5.09</time>
   <time name="total">    5.11    5.11</time>
   <energy>
    <i name="alphaZ">   1184.06556306 </i>
    <i name="ewald"> 165109.82547978 </i>
    <i name="hartreedc">-220379.83083366 </i>
    <i name="XCdc">  -1835.16779088 </i>
    <i name="pawpsdc">  61398.15472135 </i>
    <i name="pawaedc"> -57560.16969242 </i>
    <i name="eentropy">     -0.31190724 </i>
    <i name="bandstr">  -1039.98345302 </i>
    <i name="atom">  52784.82232594 </i>
    <i name="e_fr_energy">   -338.59558709 </i>
    <i name="e_wo_entrp">   -338.28367985 </i>
    <i name="e_0_energy">   -338.49161801 </i>
   </energy>
  </scstep>
  <structure>
   <crystal>
    <varray name="basis" >
     <v>      11.14491190       0.00000000       0.00000000 </v>
     <v>       5.57245595       9.65177683       0.00000000 </v>
     <v>       0.00000000       0.00000000      21.82483685 </v>
    </varray>
    <i name="volume">   2347.65846769 </i>
    <varray name="rec_basis" >
     <v>       0.08972704      -0.05180393       0.00000000 </v>
     <v>       0.00000000       0.10360787       0.00000000 </v>
     <v>       0.00000000       0.00000000       0.04581936 </v>
    </varray>
   </crystal>
   <varray name="positions" >
    <v>       0.00000000       0.00000000       0.34364518 </v>
    <v>       0.25000000       0.00000000       0.34364518 </v>
    <v>       0.50000000       0.00000000       0.34364518 </v>
    <v>       0.75000000       0.00000000       0.34364518 </v>
    <v>       0.00000000       0.25000000       0.34364518 </v>
    <v>       0.25000000       0.25000000       0.34364518 </v>
    <v>       0.50000000       0.25000000       0.34364518 </v>
    <v>       0.75000000       0.25000000       0.34364518 </v>
    <v>       0.00000000       0.50000000       0.34364518 </v>
    <v>       0.25000000       0.50000000       0.34364518 </v>
    <v>       0.50000000       0.50000000       0.34364518 </v>
    <v>       0.75000000       0.50000000       0.34364518 </v>
    <v>       0.00000000       0.75000000       0.34364518 </v>
    <v>       0.25000000       0.75000000       0.34364518 </v>
    <v>       0.50000000       0.75000000       0.34364518 </v>
    <v>       0.75000000       0.75000000       0.34364518 </v>
    <v>       0.08333333       0.08333333       0.44788173 </v>
    <v>       0.33333333       0.08333333       0.44788173 </v>
    <v>       0.58333333       0.08333333       0.44788173 </v>
    <v>       0.83333333       0.08333333       0.44788173 </v>
    <v>       0.08333333       0.33333333       0.44788173 </v>
    <v>       0.33333333       0.33333333       0.44788173 </v>
    <v>       0.58333333       0.33333333       0.44788173 </v>
    <v>       0.83333333       0.33333333       0.44788173 </v>
    <v>       0.08333333       0.58333333       0.44788173 </v>
    <v>       0.33333333       0.58333333       0.44788173 </v>
    <v>       0.58333333       0.58333333       0.44788173 </v>
    <v>       0.83333333       0.58333333       0.44788173 </v>
    <v>       0.08333333       0.83333333       0.44788173 </v>
    <v>       0.33333333       0.83333333       0.44788173 </v>
    <v>       0.58333333       0.83333333       0.44788173 </v>
    <v>       0.83333333       0.83333333       0.44788173 </v>
    <v>       0.91666667       0.16666667       0.55312823 </v>
    <v>       0.16666667       0.16666667       0.55312823 </v>
    <v>       0.41666667       0.16666667       0.55312823 </v>
    <v>       0.66666667       0.16666667       0.55312823 </v>
    <v>       0.91666667       0.41666667       0.55312823 </v>
    <v>       0.16666667       0.41666667       0.55312823 </v>
    <v>       0.41666667       0.41666667       0.55312823 </v>
    <v>       0.66666667       0.41666667       0.55312823 </v>
    <v>       0.91666667       0.66666667       0.55312823 </v>
    <v>       0.16666667       0.66666667       0.55312823 </v>
    <v>       0.41666667       0.66666667       0.55312823 </v>
    <v>       0.66666667       0.66666667       0.55312823 </v>
    <v>       0.91666667       0.91666667       0.55312823 </v>
    <v>       0.16666667       0.91666667       0.55312823 </v>
    <v>       0.41666667       0.91666667       0.55312823 </v>
    <v>       0.66666667       0.91666667       0.55312823 </v>
    <v>       0.00000000       0.00000000       0.65939211 </v>
    <v>       0.25000000       0.00000000       0.65939211 </v>
    <v>       0.50000000       0.00000000       0.65939211 </v>
    <v>       0.75000000       0.00000000       0.65939211 </v>
    <v>       0.00000000       0.25000000       0.65939211 </v>
    <v>       0.25000000       0.25000000       0.65939211 </v>
    <v>       0.50000000       0.25000000       0.65939211 </v>
    <v>       0.75000000       0.25000000       0.65939211 </v>
    <v>       0.00000000       0.50000000       0.65939211 </v>
    <v>       0.25000000       0.50000000       0.65939211 </v>
    <v>       0.50000000       0.50000000       0.65939211 </v>
    <v>       0.75000000       0.50000000       0.65939211 </v>
    <v>       0.00000000       0.75000000       0.65939211 </v>
    <v>       0.25000000       0.75000000       0.65939211 </v>
    <v>       0.50000000       0.75000000       0.65939211 </v>
    <v>       0.75000000       0.75000000       0.65939211 </v>
    <v>       0.24354720       0.00887062       0.75227735 </v>
    <v>       0.22051012       0.02428829       0.80280027 </v>
    <v>       0.91803388       0.15679248       0.71556713 </v>
   </varray>
  </structure>
  <varray name="forces" >
   <v>      -0.00334474       0.00506224      -0.00124730 </v>
[...]
       <r>   -19.0414    -0.0000     2.0000 </r>
       <r>   -18.9297    -0.0000     2.0000 </r>
       <r>   -18.8179    -0.0000     2.0000 </r>
       <r>   -18.7062    -0.0001     2.0000 </r>
       <r>   -18.5945    -0.0025     1.9997 </r>
       <r>   -18.4828    -0.0353     1.9958 </r>
       <r>   -18.3711    -0.2195     1.9712 </r>
       <r>   -18.2594    -0.3765     1.9292 </r>
       <r>   -18.1477     1.4529     2.0915 </r>
       <r>   -18.0360     6.2448     2.7891 </r>
       <r>   -17.9242     7.8143     3.6621 </r>
       <r>   -17.8125     3.4585     4.0484 </r>
       <r>   -17.7008     0.0208     4.0508 </r>
       <r>   -17.5891    -0.3551     4.0111 </r>
       <r>   -17.4774    -0.0897     4.0011 </r>
       <r>   -17.3657    -0.0091     4.0001 </r>
       <r>   -17.2540    -0.0004     4.0000 </r>
       <r>   -17.1423    -0.0000     4.0000 </r>
       <r>   -17.0305    -0.0000     4.0000 </r>
       <r>   -16.9188    -0.0000     4.0000 </r>
       <r>   -16.8071    -0.0000     4.0000 </r>
       <r>   -16.6954    -0.0000     4.0000 </r>
       <r>   -16.5837     0.0000     4.0000 </r>
       <r>   -16.4720     0.0000     4.0000 </r>
       <r>   -16.3603     0.0000     4.0000 </r>
       <r>   -16.2486     0.0000     4.0000 </r>
       <r>   -16.1368     0.0000     4.0000 </r>
       <r>   -16.0251     0.0000     4.0000 </r>
       <r>   -15.9134     0.0000     4.0000 </r>
       <r>   -15.8017     0.0000     4.0000 </r>
       <r>   -15.6900     0.0000     4.0000 </r>
       <r>   -15.5783     0.0000     4.0000 </r>
       <r>   -15.4666     0.0000     4.0000 </r>
       <r>   -15.3549     0.0000     4.0000 </r>
       <r>   -15.2431     0.0000     4.0000 </r>
       <r>   -15.1314     0.0000     4.0000 </r>
       <r>   -15.0197     0.0000     4.0000 </r>
       <r>   -14.9080     0.0000     4.0000 </r>
       <r>   -14.7963     0.0000     4.0000 </r>
       <r>   -14.6846     0.0000     4.0000 </r>
       <r>   -14.5729     0.0000     4.0000 </r>
       <r>   -14.4612     0.0000     4.0000 </r>
       <r>   -14.3494     0.0000     4.0000 </r>
       <r>   -14.2377     0.0000     4.0000 </r>
       <r>   -14.1260     0.0000     4.0000 </r>
       <r>   -14.0143     0.0000     4.0000 </r>
       <r>   -13.9026     0.0000     4.0000 </r>
       <r>   -13.7909     0.0000     4.0000 </r>
       <r>   -13.6792     0.0000     4.0000 </r>
       <r>   -13.5675     0.0000     4.0000 </r>
       <r>   -13.4557     0.0000     4.0000 </r>
       <r>   -13.3440     0.0000     4.0000 </r>
       <r>   -13.2323     0.0000     4.0000 </r>
       <r>   -13.1206     0.0000     4.0000 </r>
       <r>   -13.0089     0.0000     4.0000 </r>
       <r>   -12.8972     0.0000     4.0000 </r>
       <r>   -12.7855     0.0000     4.0000 </r>
       <r>   -12.6738     0.0000     4.0000 </r>
       <r>   -12.5620     0.0000     4.0000 </r>
       <r>   -12.4503     0.0000     4.0000 </r>
       <r>   -12.3386     0.0000     4.0000 </r>
       <r>   -12.2269     0.0000     4.0000 </r>
       <r>   -12.1152     0.0000     4.0000 </r>
       <r>   -12.0035     0.0000     4.0000 </r>
       <r>   -11.8918     0.0000     4.0000 </r>
       <r>   -11.7801     0.0000     4.0000 </r>
       <r>   -11.6683     0.0000     4.0000 </r>
       <r>   -11.5566     0.0000     4.0000 </r>
       <r>   -11.4449     0.0000     4.0000 </r>
       <r>   -11.3332     0.0000     4.0000 </r>
       <r>   -11.2215     0.0000     4.0000 </r>
       <r>   -11.1098     0.0000     4.0000 </r>
       <r>   -10.9981    -0.0000     4.0000 </r>
       <r>   -10.8864    -0.0000     4.0000 </r>
       <r>   -10.7747    -0.0000     4.0000 </r>
       <r>   -10.6629    -0.0000     4.0000 </r>
       <r>   -10.5512    -0.0000     4.0000 </r>
       <r>   -10.4395    -0.0000     4.0000 </r>
       <r>   -10.3278    -0.0000     4.0000 </r>
       <r>   -10.2161    -0.0000     4.0000 </r>
       <r>   -10.1044    -0.0000     4.0000 </r>
       <r>    -9.9927    -0.0010     3.9999 </r>
       <r>    -9.8810    -0.0180     3.9979 </r>
       <r>    -9.7692    -0.1435     3.9818 </r>
       <r>    -9.6575    -0.4054     3.9366 </r>
       <r>    -9.5458     0.5646     3.9996 </r>
       <r>    -9.4341     4.8361     4.5399 </r>
       <r>    -9.3224     8.1076     5.4456 </r>
       <r>    -9.2107     4.9270     5.9960 </r>
       <r>    -9.0990     0.6100     6.0642 </r>
       <r>    -8.9873    -0.4067     6.0187 </r>
       <r>    -8.8755    -0.1477     6.0022 </r>
       <r>    -8.7638    -0.0188     6.0001 </r>
       <r>    -8.6521    -0.0011     6.0000 </r>
       <r>    -8.5404    -0.0000     6.0000 </r>
       <r>    -8.4287    -0.0000     6.0000 </r>
       <r>    -8.3170    -0.0000     6.0000 </r>
       <r>    -8.2053    -0.0000     6.0000 </r>
       <r>    -8.0936    -0.0000     6.0000 </r>
       <r>    -7.9818     0.0000     6.0000 </r>
       <r>    -7.8701     0.0000     6.0000 </r>
       <r>    -7.7584    -0.0000     6.0000 </r>
       <r>    -7.6467    -0.0000     6.0000 </r>
       <r>    -7.5350    -0.0000     6.0000 </r>
       <r>    -7.4233    -0.0000     6.0000 </r>
       <r>    -7.3116    -0.0000     6.0000 </r>
       <r>    -7.1999    -0.0000     6.0000 </r>
       <r>    -7.0881    -0.0000     6.0000 </r>
       <r>    -6.9764    -0.0000     6.0000 </r>
       <r>    -6.8647    -0.0000     6.0000 </r>
       <r>    -6.7530    -0.0001     6.0000 </r>
       <r>    -6.6413    -0.0037     5.9996 </r>
       <r>    -6.5296    -0.0553     5.9934 </r>
       <r>    -6.4179    -0.3724     5.9518 </r>
       <r>    -6.3062    -0.7799     5.8647 </r>
       <r>    -6.1944     2.1243     6.1020 </r>
       <r>    -6.0827    11.2623     7.3601 </r>
       <r>    -5.9710    15.8939     9.1357 </r>
       <r>    -5.8593     8.1659    10.0479 </r>
       <r>    -5.7476     0.3957    10.0921 </r>
       <r>    -5.6359    -1.0787     9.9716 </r>
       <r>    -5.5242     0.2595    10.0006 </r>
       <r>    -5.4125     4.8093    10.5378 </r>
       <r>    -5.3007    11.1672    11.7853 </r>
       <r>    -5.1890    10.7864    12.9903 </r>
       <r>    -5.0773     4.7026    13.5156 </r>
       <r>    -4.9656     5.9817    14.1839 </r>
       <r>    -4.8539    16.3641    16.0119 </r>
       <r>    -4.7422    24.2296    18.7187 </r>
       <r>    -4.6305    20.9672    21.0610 </r>
       <r>    -4.5188     9.6075    22.1343 </r>
       <r>    -4.4070     1.8220    22.3378 </r>
       <r>    -4.2953     5.1582    22.9140 </r>
       <r>    -4.1836    13.7963    24.4553 </r>
       <r>    -4.0719    14.4064    26.0646 </r>
       <r>    -3.9602    12.3340    27.4425 </r>
       <r>    -3.8485    25.3308    30.2723 </r>
       <r>    -3.7368    55.0205    36.4187 </r>
       <r>    -3.6251    85.1134    45.9270 </r>
       <r>    -3.5133    98.2922    56.9074 </r>
       <r>    -3.4016   108.4536    69.0230 </r>
       <r>    -3.2899   135.9466    84.2100 </r>
       <r>    -3.1782   152.3062   101.2245 </r>
       <r>    -3.0665   135.1000   116.3168 </r>
       <r>    -2.9548   110.9199   128.7079 </r>
       <r>    -2.8431   107.2492   140.6890 </r>
       <r>    -2.7314   115.1169   153.5490 </r>
       <r>    -2.6196   118.1032   166.7426 </r>
       <r>    -2.5079   113.3763   179.4081 </r>
       <r>    -2.3962   103.5463   190.9755 </r>
       <r>    -2.2845    98.9496   202.0294 </r>
       <r>    -2.1728    99.3281   213.1256 </r>
       <r>    -2.0611   102.4939   224.5755 </r>
       <r>    -1.9494   114.1115   237.3231 </r>
       <r>    -1.8377   126.8806   251.4973 </r>
       <r>    -1.7259   139.2932   267.0581 </r>
       <r>    -1.6142   150.9166   283.9173 </r>
       <r>    -1.5025   166.6468   302.5338 </r>
       <r>    -1.3908   190.1531   323.7763 </r>
       <r>    -1.2791   196.9465   345.7777 </r>
       <r>    -1.1674   172.5544   365.0541 </r>
       <r>    -1.0557   142.0258   380.9202 </r>
       <r>    -0.9440   133.4866   395.8323 </r>
       <r>    -0.8322   126.3660   409.9489 </r>
       <r>    -0.7205   120.9261   423.4579 </r>
       <r>    -0.6088   136.3766   438.6928 </r>
       <r>    -0.4971   149.1790   455.3580 </r>
       <r>    -0.3854   142.2021   471.2437 </r>
       <r>    -0.2737   121.0516   484.7667 </r>
       <r>    -0.1620   115.5746   497.6778 </r>
       <r>    -0.0503   136.1066   512.8826 </r>
       <r>     0.0615   156.5021   530.3658 </r>
       <r>     0.1732   162.6497   548.5358 </r>
       <r>     0.2849   149.2912   565.2135 </r>
       <r>     0.3966   125.3480   579.2165 </r>
       <r>     0.5083   127.7725   593.4902 </r>
       <r>     0.6200   175.1225   613.0536 </r>
       <r>     0.7317   214.8011   637.0495 </r>
       <r>     0.8434   194.4753   658.7748 </r>
       <r>     0.9552   136.0670   673.9752 </r>
       <r>     1.0669    77.9271   682.6806 </r>
       <r>     1.1786    37.7635   686.8993 </r>
       <r>     1.2903    16.0242   688.6894 </r>
       <r>     1.4020     5.9655   689.3558 </r>
       <r>     1.5137     9.2161   690.3854 </r>
       <r>     1.6254    22.6394   692.9145 </r>
       <r>     1.7371    29.1842   696.1747 </r>
       <r>     1.8489    22.8023   698.7220 </r>
       <r>     1.9606    16.6516   700.5822 </r>
       <r>     2.0723    19.9791   702.8141 </r>
       <r>     2.1840    22.1546   705.2890 </r>
       <r>     2.2957    19.5059   707.4681 </r>
       <r>     2.4074    19.1128   709.6032 </r>
       <r>     2.5191    17.3383   711.5401 </r>
       <r>     2.6308    13.2052   713.0153 </r>
       <r>     2.7426    11.0528   714.2501 </r>
       <r>     2.8543    11.4523   715.5294 </r>
       <r>     2.9660    15.2428   717.2322 </r>
       <r>     3.0777    19.6938   719.4323 </r>
       <r>     3.1894    24.7425   722.1963 </r>
       <r>     3.3011    28.6648   725.3985 </r>
       <r>     3.4128    27.7270   728.4960 </r>
       <r>     3.5245    25.8737   731.3864 </r>
       <r>     3.6363    24.5490   734.1288 </r>
       <r>     3.7480    25.6135   736.9902 </r>
       <r>     3.8597    30.5608   740.4042 </r>
       <r>     3.9714    29.8326   743.7369 </r>
       <r>     4.0831    21.2128   746.1066 </r>
       <r>     4.1948    12.1340   747.4621 </r>
       <r>     4.3065     6.7896   748.2206 </r>
       <r>     4.4182     8.8421   749.2084 </r>
       <r>     4.5300    18.2914   751.2518 </r>
       <r>     4.6417    26.8647   754.2529 </r>
       <r>     4.7534    24.5371   756.9940 </r>
       <r>     4.8651    14.7025   758.6364 </r>
       <r>     4.9768    12.5667   760.0403 </r>
       <r>     5.0885    22.1673   762.5167 </r>
       <r>     5.2002    28.8103   765.7351 </r>
       <r>     5.3119    23.7167   768.3846 </r>
       <r>     5.4237    13.2642   769.8664 </r>
       <r>     5.5354    10.2038   771.0062 </r>
       <r>     5.6471    22.9624   773.5714 </r>
       <r>     5.7588    35.6166   777.5502 </r>
       <r>     5.8705    32.2789   781.1562 </r>
       <r>     5.9822    23.6966   783.8034 </r>
       <r>     6.0939    18.6077   785.8821 </r>
       <r>     6.2056    15.1122   787.5703 </r>
       <r>     6.3174    12.9861   789.0210 </r>
       <r>     6.4291    12.5220   790.4199 </r>
       <r>     6.5408    14.9022   792.0847 </r>
       <r>     6.6525    21.1633   794.4489 </r>
       <r>     6.7642    23.7403   797.1010 </r>
       <r>     6.8759    16.7735   798.9748 </r>
       <r>     6.9876     6.6655   799.7194 </r>
       <r>     7.0993     1.6529   799.9040 </r>
       <r>     7.2110     0.7785   799.9910 </r>
       <r>     7.3228     0.2370   800.0175 </r>
       <r>     7.4345    -0.0857   800.0079 </r>
       <r>     7.5462    -0.0586   800.0013 </r>
       <r>     7.6579    -0.0111   800.0001 </r>
       <r>     7.7696    -0.0009   800.0000 </r>
       <r>     7.8813    -0.0000   800.0000 </r>
       <r>     7.9930    -0.0000   800.0000 </r>
       <r>     8.1047    -0.0000   800.0000 </r>
       <r>     8.2165    -0.0000   800.0000 </r>
       <r>     8.3282    -0.0000   800.0000 </r>
       <r>     8.4399    -0.0000   800.0000 </r>
       <r>     8.5516     0.0000   800.0000 </r>
       <r>     8.6633     0.0000   800.0000 </r>
       <r>     8.7750     0.0000   800.0000 </r>
       <r>     8.8867     0.0000   800.0000 </r>
       <r>     8.9984     0.0000   800.0000 </r>
       <r>     9.1102     0.0000   800.0000 </r>
      </set>
     </set>
    </array>
   </total>
  </dos>
 </calculation>
 <structure name="finalpos" >
  <crystal>
   <varray name="basis" >
    <v>      11.14491190       0.00000000       0.00000000 </v>
    <v>       5.57245595       9.65177683       0.00000000 </v>
    <v>       0.00000000       0.00000000      21.82483685 </v>
   </varray>
   <i name="volume">   2347.65846769 </i>
   <varray name="rec_basis" >
    <v>       0.08972704      -0.05180393       0.00000000 </v>
    <v>       0.00000000       0.10360787       0.00000000 </v>
    <v>       0.00000000       0.00000000       0.04581936 </v>
   </varray>
  </crystal>
  <varray name="positions" >
   <v>       0.00000000       0.00000000       0.34364518 </v>
   <v>       0.25000000       0.00000000       0.34364518 </v>
   <v>       0.50000000       0.00000000       0.34364518 </v>
   <v>       0.75000000       0.00000000       0.34364518 </v>
   <v>       0.00000000       0.25000000       0.34364518 </v>
   <v>       0.25000000       0.25000000       0.34364518 </v>
   <v>       0.50000000       0.25000000       0.34364518 </v>
   <v>       0.75000000       0.25000000       0.34364518 </v>
   <v>       0.00000000       0.50000000       0.34364518 </v>
   <v>       0.25000000       0.50000000       0.34364518 </v>
   <v>       0.50000000       0.50000000       0.34364518 </v>
   <v>       0.75000000       0.50000000       0.34364518 </v>
   <v>       0.00000000       0.75000000       0.34364518 </v>
   <v>       0.25000000       0.75000000       0.34364518 </v>
   <v>       0.50000000       0.75000000       0.34364518 </v>
   <v>       0.75000000       0.75000000       0.34364518 </v>
   <v>       0.08333333       0.08333333       0.44788173 </v>
   <v>       0.33333333       0.08333333       0.44788173 </v>
   <v>       0.58333333       0.08333333       0.44788173 </v>
   <v>       0.83333333       0.08333333       0.44788173 </v>
   <v>       0.08333333       0.33333333       0.44788173 </v>
   <v>       0.33333333       0.33333333       0.44788173 </v>
   <v>       0.58333333       0.33333333       0.44788173 </v>
   <v>       0.83333333       0.33333333       0.44788173 </v>
   <v>       0.08333333       0.58333333       0.44788173 </v>
   <v>       0.33333333       0.58333333       0.44788173 </v>
   <v>       0.58333333       0.58333333       0.44788173 </v>
   <v>       0.83333333       0.58333333       0.44788173 </v>
   <v>       0.08333333       0.83333333       0.44788173 </v>
   <v>       0.33333333       0.83333333       0.44788173 </v>
   <v>       0.58333333       0.83333333       0.44788173 </v>
   <v>       0.83333333       0.83333333       0.44788173 </v>
   <v>       0.91666667       0.16666667       0.55312823 </v>
   <v>       0.16666667       0.16666667       0.55312823 </v>
   <v>       0.41666667       0.16666667       0.55312823 </v>
   <v>       0.66666667       0.16666667       0.55312823 </v>
   <v>       0.91666667       0.41666667       0.55312823 </v>
   <v>       0.16666667       0.41666667       0.55312823 </v>
   <v>       0.41666667       0.41666667       0.55312823 </v>
   <v>       0.66666667       0.41666667       0.55312823 </v>
   <v>       0.91666667       0.66666667       0.55312823 </v>
   <v>       0.16666667       0.66666667       0.55312823 </v>
   <v>       0.41666667       0.66666667       0.55312823 </v>
   <v>       0.66666667       0.66666667       0.55312823 </v>
   <v>       0.91666667       0.91666667       0.55312823 </v>
   <v>       0.16666667       0.91666667       0.55312823 </v>
   <v>       0.41666667       0.91666667       0.55312823 </v>
   <v>       0.66666667       0.91666667       0.55312823 </v>
   <v>       0.00000000       0.00000000       0.65939211 </v>
   <v>       0.25000000       0.00000000       0.65939211 </v>
   <v>       0.50000000       0.00000000       0.65939211 </v>
   <v>       0.75000000       0.00000000       0.65939211 </v>
   <v>       0.00000000       0.25000000       0.65939211 </v>
   <v>       0.25000000       0.25000000       0.65939211 </v>
   <v>       0.50000000       0.25000000       0.65939211 </v>
   <v>       0.75000000       0.25000000       0.65939211 </v>
   <v>       0.00000000       0.50000000       0.65939211 </v>
   <v>       0.25000000       0.50000000       0.65939211 </v>
   <v>       0.50000000       0.50000000       0.65939211 </v>
   <v>       0.75000000       0.50000000       0.65939211 </v>
   <v>       0.00000000       0.75000000       0.65939211 </v>
   <v>       0.25000000       0.75000000       0.65939211 </v>
   <v>       0.50000000       0.75000000       0.65939211 </v>
   <v>       0.75000000       0.75000000       0.65939211 </v>
   <v>       0.24372665       0.00887062       0.75227735 </v>
   <v>       0.22051012       0.02428829       0.80280027 </v>
   <v>       0.91803388       0.15679248       0.71547549 </v>
  </varray>
  <varray name="selective"  type="logical" >
   <v type="logical" >  F  F  F </v>
   <v type="logical" >  F  F  F </v>
   <v type="logical" >  F  F  F </v>
   <v type="logical" >  F  F  F </v>
   <v type="logical" >  F  F  F </v>
   <v type="logical" >  F  F  F </v>
   <v type="logical" >  F  F  F </v>
   <v type="logical" >  F  F  F </v>
   <v type="logical" >  F  F  F </v>
   <v type="logical" >  F  F  F </v>
   <v type="logical" >  F  F  F </v>
   <v type="logical" >  F  F  F </v>
   <v type="logical" >  F  F  F </v>
   <v type="logical" >  F  F  F </v>
   <v type="logical" >  F  F  F </v>
   <v type="logical" >  F  F  F </v>
   <v type="logical" >  F  F  F </v>
   <v type="logical" >  F  F  F </v>
   <v type="logical" >  F  F  F </v>
   <v type="logical" >  F  F  F </v>
   <v type="logical" >  F  F  F </v>
   <v type="logical" >  F  F  F </v>
   <v type="logical" >  F  F  F </v>
   <v type="logical" >  F  F  F </v>
   <v type="logical" >  F  F  F </v>
   <v type="logical" >  F  F  F </v>
   <v type="logical" >  F  F  F </v>
   <v type="logical" >  F  F  F </v>
   <v type="logical" >  F  F  F </v>
   <v type="logical" >  F  F  F </v>
   <v type="logical" >  F  F  F </v>
   <v type="logical" >  F  F  F </v>
   <v type="logical" >  F  F  F </v>
   <v type="logical" >  F  F  F </v>
   <v type="logical" >  F  F  F </v>
   <v type="logical" >  F  F  F </v>
   <v type="logical" >  F  F  F </v>
   <v type="logical" >  F  F  F </v>
   <v type="logical" >  F  F  F </v>
   <v type="logical" >  F  F  F </v>
   <v type="logical" >  F  F  F </v>
   <v type="logical" >  F  F  F </v>
   <v type="logical" >  F  F  F </v>
   <v type="logical" >  F  F  F </v>
   <v type="logical" >  F  F  F </v>
   <v type="logical" >  F  F  F </v>
   <v type="logical" >  F  F  F </v>
   <v type="logical" >  F  F  F </v>
   <v type="logical" >  F  F  F </v>
   <v type="logical" >  F  F  F </v>
   <v type="logical" >  F  F  F </v>
   <v type="logical" >  F  F  F </v>
   <v type="logical" >  F  F  F </v>
   <v type="logical" >  F  F  F </v>
   <v type="logical" >  F  F  F </v>
   <v type="logical" >  F  F  F </v>
   <v type="logical" >  F  F  F </v>
   <v type="logical" >  F  F  F </v>
   <v type="logical" >  F  F  F </v>
   <v type="logical" >  F  F  F </v>
   <v type="logical" >  F  F  F </v>
   <v type="logical" >  F  F  F </v>
   <v type="logical" >  F  F  F </v>
   <v type="logical" >  F  F  F </v>
   <v type="logical" >  T  T  T </v>
   <v type="logical" >  T  T  T </v>
   <v type="logical" >  T  T  T </v>
  </varray>
  <nose>
   <v>      -3.00000000       0.00000000       0.00010000       0.00010000 </v>
  </nose>
 </structure>
</modeling>
